# Location 0    : (-1.00010000e+01 1.00000000e-03 -5.00100000e+00)
# Location 1    : (-2.00010000e+01 1.00000000e-03 -5.00100000e+00)
# Location 2    : (-3.00010000e+01 1.00000000e-03 -5.00100000e+00)
# Location 3    : (-4.00010000e+01 1.00000000e-03 -5.00100000e+00)
# Location 4    : (-5.00010000e+01 1.00000000e-03 -5.00100000e+00)
# p             : Interface position
# Location      0                                                    1                                                    2                                                    3                                                    4                                                    
# Time          p                                                    p                                                    p                                                    p                                                    p                                                    
0               (-1.00010000e+01  1.00000000e-03   1.79769313e+307 ) (-2.00010000e+01  1.00000000e-03   1.79769313e+307 ) (-3.00010000e+01  1.00000000e-03   1.79769313e+307 ) (-4.00010000e+01  1.00000000e-03   1.79769313e+307 ) (-5.00010000e+01  1.00000000e-03   1.79769313e+307 ) 
0.001190476     (-1.00010000e+01  1.00000000e-03   1.79769313e+307 ) (-2.00010000e+01  1.00000000e-03   1.79769313e+307 ) (-3.00010000e+01  1.00000000e-03   1.79769313e+307 ) (-4.00010000e+01  1.00000000e-03   1.79769313e+307 ) (-5.00010000e+01  1.00000000e-03   1.79769313e+307 ) 
0.002602041     (-1.00010000e+01  1.00000000e-03   1.79769313e+307 ) (-2.00010000e+01  1.00000000e-03   1.79769313e+307 ) (-3.00010000e+01  1.00000000e-03   1.79769313e+307 ) (-4.00010000e+01  1.00000000e-03   1.79769313e+307 ) (-5.00010000e+01  1.00000000e-03   1.79769313e+307 ) 
0.004281316     (-1.00010000e+01  1.00000000e-03   1.79769313e+307 ) (-2.00010000e+01  1.00000000e-03   1.79769313e+307 ) (-3.00010000e+01  1.00000000e-03   1.79769313e+307 ) (-4.00010000e+01  1.00000000e-03   1.79769313e+307 ) (-5.00010000e+01  1.00000000e-03   1.79769313e+307 ) 
0.006275455     (-1.00010000e+01  1.00000000e-03   1.79769313e+307 ) (-2.00010000e+01  1.00000000e-03   1.79769313e+307 ) (-3.00010000e+01  1.00000000e-03   1.79769313e+307 ) (-4.00010000e+01  1.00000000e-03   1.79769313e+307 ) (-5.00010000e+01  1.00000000e-03   1.79769313e+307 ) 
0.008618569     (-1.00010000e+01  1.00000000e-03   1.79769313e+307 ) (-2.00010000e+01  1.00000000e-03   1.79769313e+307 ) (-3.00010000e+01  1.00000000e-03   1.79769313e+307 ) (-4.00010000e+01  1.00000000e-03   1.79769313e+307 ) (-5.00010000e+01  1.00000000e-03   1.79769313e+307 ) 
0.0113877       (-1.00010000e+01  1.00000000e-03   1.79769313e+307 ) (-2.00010000e+01  1.00000000e-03   1.79769313e+307 ) (-3.00010000e+01  1.00000000e-03   1.79769313e+307 ) (-4.00010000e+01  1.00000000e-03   1.79769313e+307 ) (-5.00010000e+01  1.00000000e-03   1.79769313e+307 ) 
0.01466964      (-1.00010000e+01  1.00000000e-03   1.79769313e+307 ) (-2.00010000e+01  1.00000000e-03   1.79769313e+307 ) (-3.00010000e+01  1.00000000e-03   1.79769313e+307 ) (-4.00010000e+01  1.00000000e-03   1.79769313e+307 ) (-5.00010000e+01  1.00000000e-03   1.79769313e+307 ) 
0.01854829      (-1.00010000e+01  1.00000000e-03   1.79769313e+307 ) (-2.00010000e+01  1.00000000e-03   1.79769313e+307 ) (-3.00010000e+01  1.00000000e-03   1.79769313e+307 ) (-4.00010000e+01  1.00000000e-03   1.79769313e+307 ) (-5.00010000e+01  1.00000000e-03   1.79769313e+307 ) 
0.02307339      (-1.00010000e+01  1.00000000e-03   1.79769313e+307 ) (-2.00010000e+01  1.00000000e-03   1.79769313e+307 ) (-3.00010000e+01  1.00000000e-03   1.79769313e+307 ) (-4.00010000e+01  1.00000000e-03   1.79769313e+307 ) (-5.00010000e+01  1.00000000e-03   1.79769313e+307 ) 
0.02820183      (-1.00010000e+01  1.00000000e-03   1.79769313e+307 ) (-2.00010000e+01  1.00000000e-03   1.79769313e+307 ) (-3.00010000e+01  1.00000000e-03   1.79769313e+307 ) (-4.00010000e+01  1.00000000e-03   1.79769313e+307 ) (-5.00010000e+01  1.00000000e-03   1.79769313e+307 ) 
0.03418501      (-1.00010000e+01  1.00000000e-03   1.79769313e+307 ) (-2.00010000e+01  1.00000000e-03   1.79769313e+307 ) (-3.00010000e+01  1.00000000e-03   1.79769313e+307 ) (-4.00010000e+01  1.00000000e-03   1.79769313e+307 ) (-5.00010000e+01  1.00000000e-03   1.79769313e+307 ) 
0.04076651      (-1.00010000e+01  1.00000000e-03   1.79769313e+307 ) (-2.00010000e+01  1.00000000e-03   1.79769313e+307 ) (-3.00010000e+01  1.00000000e-03   1.79769313e+307 ) (-4.00010000e+01  1.00000000e-03   1.79769313e+307 ) (-5.00010000e+01  1.00000000e-03   1.79769313e+307 ) 
0.04817069      (-1.00010000e+01  1.00000000e-03   1.79769313e+307 ) (-2.00010000e+01  1.00000000e-03   1.79769313e+307 ) (-3.00010000e+01  1.00000000e-03   1.79769313e+307 ) (-4.00010000e+01  1.00000000e-03   1.79769313e+307 ) (-5.00010000e+01  1.00000000e-03   1.79769313e+307 ) 
0.05680891      (-1.00010000e+01  1.00000000e-03   1.79769313e+307 ) (-2.00010000e+01  1.00000000e-03   1.79769313e+307 ) (-3.00010000e+01  1.00000000e-03   1.79769313e+307 ) (-4.00010000e+01  1.00000000e-03   1.79769313e+307 ) (-5.00010000e+01  1.00000000e-03   1.79769313e+307 ) 
0.06544713      (-1.00010000e+01  1.00000000e-03   1.79769313e+307 ) (-2.00010000e+01  1.00000000e-03   1.79769313e+307 ) (-3.00010000e+01  1.00000000e-03   1.79769313e+307 ) (-4.00010000e+01  1.00000000e-03   1.79769313e+307 ) (-5.00010000e+01  1.00000000e-03   1.79769313e+307 ) 
0.07408535      (-1.00010000e+01  1.00000000e-03   1.79769313e+307 ) (-2.00010000e+01  1.00000000e-03   1.79769313e+307 ) (-3.00010000e+01  1.00000000e-03   1.79769313e+307 ) (-4.00010000e+01  1.00000000e-03   1.79769313e+307 ) (-5.00010000e+01  1.00000000e-03   1.79769313e+307 ) 
0.08272356      (-1.00010000e+01  1.00000000e-03   1.79769313e+307 ) (-2.00010000e+01  1.00000000e-03   1.79769313e+307 ) (-3.00010000e+01  1.00000000e-03   1.79769313e+307 ) (-4.00010000e+01  1.00000000e-03   1.79769313e+307 ) (-5.00010000e+01  1.00000000e-03   1.79769313e+307 ) 
0.09136178      (-1.00010000e+01  1.00000000e-03   1.79769313e+307 ) (-2.00010000e+01  1.00000000e-03   1.79769313e+307 ) (-3.00010000e+01  1.00000000e-03   1.79769313e+307 ) (-4.00010000e+01  1.00000000e-03   1.79769313e+307 ) (-5.00010000e+01  1.00000000e-03   1.79769313e+307 ) 
0.1             (-1.00010000e+01  1.00000000e-03   1.79769313e+307 ) (-2.00010000e+01  1.00000000e-03   1.79769313e+307 ) (-3.00010000e+01  1.00000000e-03   1.79769313e+307 ) (-4.00010000e+01  1.00000000e-03   1.79769313e+307 ) (-5.00010000e+01  1.00000000e-03   1.79769313e+307 ) 
0.11            (-1.00010000e+01  1.00000000e-03   1.79769313e+307 ) (-2.00010000e+01  1.00000000e-03   1.79769313e+307 ) (-3.00010000e+01  1.00000000e-03   1.79769313e+307 ) (-4.00010000e+01  1.00000000e-03   1.79769313e+307 ) (-5.00010000e+01  1.00000000e-03   1.79769313e+307 ) 
0.12125         (-1.00010000e+01  1.00000000e-03   1.79769313e+307 ) (-2.00010000e+01  1.00000000e-03   1.79769313e+307 ) (-3.00010000e+01  1.00000000e-03   1.79769313e+307 ) (-4.00010000e+01  1.00000000e-03   1.79769313e+307 ) (-5.00010000e+01  1.00000000e-03   1.79769313e+307 ) 
0.134375        (-1.00010000e+01  1.00000000e-03   1.79769313e+307 ) (-2.00010000e+01  1.00000000e-03   1.79769313e+307 ) (-3.00010000e+01  1.00000000e-03   1.79769313e+307 ) (-4.00010000e+01  1.00000000e-03   1.79769313e+307 ) (-5.00010000e+01  1.00000000e-03   1.79769313e+307 ) 
0.1475          (-1.00010000e+01  1.00000000e-03   1.79769313e+307 ) (-2.00010000e+01  1.00000000e-03   1.79769313e+307 ) (-3.00010000e+01  1.00000000e-03   1.79769313e+307 ) (-4.00010000e+01  1.00000000e-03   1.79769313e+307 ) (-5.00010000e+01  1.00000000e-03   1.79769313e+307 ) 
0.160625        (-1.00010000e+01  1.00000000e-03   1.79769313e+307 ) (-2.00010000e+01  1.00000000e-03   1.79769313e+307 ) (-3.00010000e+01  1.00000000e-03   1.79769313e+307 ) (-4.00010000e+01  1.00000000e-03   1.79769313e+307 ) (-5.00010000e+01  1.00000000e-03   1.79769313e+307 ) 
0.17375         (-1.00010000e+01  1.00000000e-03   1.79769313e+307 ) (-2.00010000e+01  1.00000000e-03   1.79769313e+307 ) (-3.00010000e+01  1.00000000e-03   1.79769313e+307 ) (-4.00010000e+01  1.00000000e-03   1.79769313e+307 ) (-5.00010000e+01  1.00000000e-03   1.79769313e+307 ) 
0.186875        (-1.00010000e+01  1.00000000e-03   1.79769313e+307 ) (-2.00010000e+01  1.00000000e-03   1.79769313e+307 ) (-3.00010000e+01  1.00000000e-03   1.79769313e+307 ) (-4.00010000e+01  1.00000000e-03   1.79769313e+307 ) (-5.00010000e+01  1.00000000e-03   1.79769313e+307 ) 
0.2             (-1.00010000e+01  1.00000000e-03   1.79769313e+307 ) (-2.00010000e+01  1.00000000e-03   1.79769313e+307 ) (-3.00010000e+01  1.00000000e-03   1.79769313e+307 ) (-4.00010000e+01  1.00000000e-03   1.79769313e+307 ) (-5.00010000e+01  1.00000000e-03   1.79769313e+307 ) 
0.2142857       (-1.00010000e+01  1.00000000e-03   1.79769313e+307 ) (-2.00010000e+01  1.00000000e-03   1.79769313e+307 ) (-3.00010000e+01  1.00000000e-03   1.79769313e+307 ) (-4.00010000e+01  1.00000000e-03   1.79769313e+307 ) (-5.00010000e+01  1.00000000e-03   1.79769313e+307 ) 
0.2314286       (-1.00010000e+01  1.00000000e-03   1.79769313e+307 ) (-2.00010000e+01  1.00000000e-03   1.79769313e+307 ) (-3.00010000e+01  1.00000000e-03   1.79769313e+307 ) (-4.00010000e+01  1.00000000e-03   1.79769313e+307 ) (-5.00010000e+01  1.00000000e-03   1.79769313e+307 ) 
0.2485714       (-1.00010000e+01  1.00000000e-03   1.79769313e+307 ) (-2.00010000e+01  1.00000000e-03   1.79769313e+307 ) (-3.00010000e+01  1.00000000e-03   1.79769313e+307 ) (-4.00010000e+01  1.00000000e-03   1.79769313e+307 ) (-5.00010000e+01  1.00000000e-03   1.79769313e+307 ) 
0.2657143       (-1.00010000e+01  1.00000000e-03   1.79769313e+307 ) (-2.00010000e+01  1.00000000e-03   1.79769313e+307 ) (-3.00010000e+01  1.00000000e-03   1.79769313e+307 ) (-4.00010000e+01  1.00000000e-03   1.79769313e+307 ) (-5.00010000e+01  1.00000000e-03   1.79769313e+307 ) 
0.2828571       (-1.00010000e+01  1.00000000e-03   1.79769313e+307 ) (-2.00010000e+01  1.00000000e-03   1.79769313e+307 ) (-3.00010000e+01  1.00000000e-03   1.79769313e+307 ) (-4.00010000e+01  1.00000000e-03   1.79769313e+307 ) (-5.00010000e+01  1.00000000e-03   1.79769313e+307 ) 
0.3             (-1.00010000e+01  1.00000000e-03   1.79769313e+307 ) (-2.00010000e+01  1.00000000e-03   1.79769313e+307 ) (-3.00010000e+01  1.00000000e-03   1.79769313e+307 ) (-4.00010000e+01  1.00000000e-03   1.79769313e+307 ) (-5.00010000e+01  1.00000000e-03   1.79769313e+307 ) 
0.32            (-1.00010000e+01  1.00000000e-03   1.79769313e+307 ) (-2.00010000e+01  1.00000000e-03   1.79769313e+307 ) (-3.00010000e+01  1.00000000e-03   1.79769313e+307 ) (-4.00010000e+01  1.00000000e-03   1.79769313e+307 ) (-5.00010000e+01  1.00000000e-03   1.79769313e+307 ) 
0.34            (-1.00010000e+01  1.00000000e-03   1.79769313e+307 ) (-2.00010000e+01  1.00000000e-03   1.79769313e+307 ) (-3.00010000e+01  1.00000000e-03   1.79769313e+307 ) (-4.00010000e+01  1.00000000e-03   1.79769313e+307 ) (-5.00010000e+01  1.00000000e-03   1.79769313e+307 ) 
0.36            (-1.00010000e+01  1.00000000e-03   1.79769313e+307 ) (-2.00010000e+01  1.00000000e-03   1.79769313e+307 ) (-3.00010000e+01  1.00000000e-03   1.79769313e+307 ) (-4.00010000e+01  1.00000000e-03   1.79769313e+307 ) (-5.00010000e+01  1.00000000e-03   1.79769313e+307 ) 
0.38            (-1.00010000e+01  1.00000000e-03   1.79769313e+307 ) (-2.00010000e+01  1.00000000e-03   1.79769313e+307 ) (-3.00010000e+01  1.00000000e-03   1.79769313e+307 ) (-4.00010000e+01  1.00000000e-03   1.79769313e+307 ) (-5.00010000e+01  1.00000000e-03   1.79769313e+307 ) 
0.4             (-1.00010000e+01  1.00000000e-03   1.79769313e+307 ) (-2.00010000e+01  1.00000000e-03   1.79769313e+307 ) (-3.00010000e+01  1.00000000e-03   1.79769313e+307 ) (-4.00010000e+01  1.00000000e-03   1.79769313e+307 ) (-5.00010000e+01  1.00000000e-03   1.79769313e+307 ) 
0.42            (-1.00010000e+01  1.00000000e-03   1.79769313e+307 ) (-2.00010000e+01  1.00000000e-03   1.79769313e+307 ) (-3.00010000e+01  1.00000000e-03   1.79769313e+307 ) (-4.00010000e+01  1.00000000e-03   1.79769313e+307 ) (-5.00010000e+01  1.00000000e-03   1.79769313e+307 ) 
0.44            (-1.00010000e+01  1.00000000e-03   1.79769313e+307 ) (-2.00010000e+01  1.00000000e-03   1.79769313e+307 ) (-3.00010000e+01  1.00000000e-03   1.79769313e+307 ) (-4.00010000e+01  1.00000000e-03   1.79769313e+307 ) (-5.00010000e+01  1.00000000e-03   1.79769313e+307 ) 
0.46            (-1.00010000e+01  1.00000000e-03   1.79769313e+307 ) (-2.00010000e+01  1.00000000e-03   1.79769313e+307 ) (-3.00010000e+01  1.00000000e-03   1.79769313e+307 ) (-4.00010000e+01  1.00000000e-03   1.79769313e+307 ) (-5.00010000e+01  1.00000000e-03   1.79769313e+307 ) 
0.48            (-1.00010000e+01  1.00000000e-03   1.79769313e+307 ) (-2.00010000e+01  1.00000000e-03   1.79769313e+307 ) (-3.00010000e+01  1.00000000e-03   1.79769313e+307 ) (-4.00010000e+01  1.00000000e-03   1.79769313e+307 ) (-5.00010000e+01  1.00000000e-03   1.79769313e+307 ) 
0.5             (-1.00010000e+01  1.00000000e-03   1.79769313e+307 ) (-2.00010000e+01  1.00000000e-03   1.79769313e+307 ) (-3.00010000e+01  1.00000000e-03   1.79769313e+307 ) (-4.00010000e+01  1.00000000e-03   1.79769313e+307 ) (-5.00010000e+01  1.00000000e-03   1.79769313e+307 ) 
0.52            (-1.00010000e+01  1.00000000e-03   1.79769313e+307 ) (-2.00010000e+01  1.00000000e-03   1.79769313e+307 ) (-3.00010000e+01  1.00000000e-03   1.79769313e+307 ) (-4.00010000e+01  1.00000000e-03   1.79769313e+307 ) (-5.00010000e+01  1.00000000e-03   1.79769313e+307 ) 
0.54            (-1.00010000e+01  1.00000000e-03   1.79769313e+307 ) (-2.00010000e+01  1.00000000e-03   1.79769313e+307 ) (-3.00010000e+01  1.00000000e-03   1.79769313e+307 ) (-4.00010000e+01  1.00000000e-03   1.79769313e+307 ) (-5.00010000e+01  1.00000000e-03   1.79769313e+307 ) 
0.56            (-1.00010000e+01  1.00000000e-03   1.79769313e+307 ) (-2.00010000e+01  1.00000000e-03   1.79769313e+307 ) (-3.00010000e+01  1.00000000e-03   1.79769313e+307 ) (-4.00010000e+01  1.00000000e-03   1.79769313e+307 ) (-5.00010000e+01  1.00000000e-03   1.79769313e+307 ) 
0.58            (-1.00010000e+01  1.00000000e-03   1.79769313e+307 ) (-2.00010000e+01  1.00000000e-03   1.79769313e+307 ) (-3.00010000e+01  1.00000000e-03   1.79769313e+307 ) (-4.00010000e+01  1.00000000e-03   1.79769313e+307 ) (-5.00010000e+01  1.00000000e-03   1.79769313e+307 ) 
0.6             (-1.00010000e+01  1.00000000e-03   1.79769313e+307 ) (-2.00010000e+01  1.00000000e-03   1.79769313e+307 ) (-3.00010000e+01  1.00000000e-03   1.79769313e+307 ) (-4.00010000e+01  1.00000000e-03   1.79769313e+307 ) (-5.00010000e+01  1.00000000e-03   1.79769313e+307 ) 
0.62            (-1.00010000e+01  1.00000000e-03   1.79769313e+307 ) (-2.00010000e+01  1.00000000e-03   1.79769313e+307 ) (-3.00010000e+01  1.00000000e-03   1.79769313e+307 ) (-4.00010000e+01  1.00000000e-03   1.79769313e+307 ) (-5.00010000e+01  1.00000000e-03   1.79769313e+307 ) 
0.64            (-1.00010000e+01  1.00000000e-03   1.79769313e+307 ) (-2.00010000e+01  1.00000000e-03   1.79769313e+307 ) (-3.00010000e+01  1.00000000e-03   1.79769313e+307 ) (-4.00010000e+01  1.00000000e-03   1.79769313e+307 ) (-5.00010000e+01  1.00000000e-03   1.79769313e+307 ) 
0.66            (-1.00010000e+01  1.00000000e-03   1.79769313e+307 ) (-2.00010000e+01  1.00000000e-03   1.79769313e+307 ) (-3.00010000e+01  1.00000000e-03   1.79769313e+307 ) (-4.00010000e+01  1.00000000e-03   1.79769313e+307 ) (-5.00010000e+01  1.00000000e-03   1.79769313e+307 ) 
0.68            (-1.00010000e+01  1.00000000e-03   1.79769313e+307 ) (-2.00010000e+01  1.00000000e-03   1.79769313e+307 ) (-3.00010000e+01  1.00000000e-03   1.79769313e+307 ) (-4.00010000e+01  1.00000000e-03   1.79769313e+307 ) (-5.00010000e+01  1.00000000e-03   1.79769313e+307 ) 
0.7             (-1.00010000e+01  1.00000000e-03   1.79769313e+307 ) (-2.00010000e+01  1.00000000e-03   1.79769313e+307 ) (-3.00010000e+01  1.00000000e-03   1.79769313e+307 ) (-4.00010000e+01  1.00000000e-03   1.79769313e+307 ) (-5.00010000e+01  1.00000000e-03   1.79769313e+307 ) 
0.72            (-1.00010000e+01  1.00000000e-03   1.79769313e+307 ) (-2.00010000e+01  1.00000000e-03   1.79769313e+307 ) (-3.00010000e+01  1.00000000e-03   1.79769313e+307 ) (-4.00010000e+01  1.00000000e-03   1.79769313e+307 ) (-5.00010000e+01  1.00000000e-03   1.79769313e+307 ) 
0.74            (-1.00010000e+01  1.00000000e-03   1.79769313e+307 ) (-2.00010000e+01  1.00000000e-03   1.79769313e+307 ) (-3.00010000e+01  1.00000000e-03   1.79769313e+307 ) (-4.00010000e+01  1.00000000e-03   1.79769313e+307 ) (-5.00010000e+01  1.00000000e-03   1.79769313e+307 ) 
0.76            (-1.00010000e+01  1.00000000e-03   1.79769313e+307 ) (-2.00010000e+01  1.00000000e-03   1.79769313e+307 ) (-3.00010000e+01  1.00000000e-03   1.79769313e+307 ) (-4.00010000e+01  1.00000000e-03   1.79769313e+307 ) (-5.00010000e+01  1.00000000e-03   1.79769313e+307 ) 
0.78            (-1.00010000e+01  1.00000000e-03   1.79769313e+307 ) (-2.00010000e+01  1.00000000e-03   1.79769313e+307 ) (-3.00010000e+01  1.00000000e-03   1.79769313e+307 ) (-4.00010000e+01  1.00000000e-03   1.79769313e+307 ) (-5.00010000e+01  1.00000000e-03   1.79769313e+307 ) 
0.8             (-1.00010000e+01  1.00000000e-03   1.79769313e+307 ) (-2.00010000e+01  1.00000000e-03   1.79769313e+307 ) (-3.00010000e+01  1.00000000e-03   1.79769313e+307 ) (-4.00010000e+01  1.00000000e-03   1.79769313e+307 ) (-5.00010000e+01  1.00000000e-03   1.79769313e+307 ) 
0.82            (-1.00010000e+01  1.00000000e-03   1.79769313e+307 ) (-2.00010000e+01  1.00000000e-03   1.79769313e+307 ) (-3.00010000e+01  1.00000000e-03   1.79769313e+307 ) (-4.00010000e+01  1.00000000e-03   1.79769313e+307 ) (-5.00010000e+01  1.00000000e-03   1.79769313e+307 ) 
0.84            (-1.00010000e+01  1.00000000e-03   1.79769313e+307 ) (-2.00010000e+01  1.00000000e-03   1.79769313e+307 ) (-3.00010000e+01  1.00000000e-03   1.79769313e+307 ) (-4.00010000e+01  1.00000000e-03   1.79769313e+307 ) (-5.00010000e+01  1.00000000e-03   1.79769313e+307 ) 
0.86            (-1.00010000e+01  1.00000000e-03   1.79769313e+307 ) (-2.00010000e+01  1.00000000e-03   1.79769313e+307 ) (-3.00010000e+01  1.00000000e-03   1.79769313e+307 ) (-4.00010000e+01  1.00000000e-03   1.79769313e+307 ) (-5.00010000e+01  1.00000000e-03   1.79769313e+307 ) 
0.88            (-1.00010000e+01  1.00000000e-03   1.79769313e+307 ) (-2.00010000e+01  1.00000000e-03   1.79769313e+307 ) (-3.00010000e+01  1.00000000e-03   1.79769313e+307 ) (-4.00010000e+01  1.00000000e-03   1.79769313e+307 ) (-5.00010000e+01  1.00000000e-03   1.79769313e+307 ) 
0.9             (-1.00010000e+01  1.00000000e-03   1.79769313e+307 ) (-2.00010000e+01  1.00000000e-03   1.79769313e+307 ) (-3.00010000e+01  1.00000000e-03   1.79769313e+307 ) (-4.00010000e+01  1.00000000e-03   1.79769313e+307 ) (-5.00010000e+01  1.00000000e-03   1.79769313e+307 ) 
0.92            (-1.00010000e+01  1.00000000e-03   1.79769313e+307 ) (-2.00010000e+01  1.00000000e-03   1.79769313e+307 ) (-3.00010000e+01  1.00000000e-03   1.79769313e+307 ) (-4.00010000e+01  1.00000000e-03   1.79769313e+307 ) (-5.00010000e+01  1.00000000e-03   1.79769313e+307 ) 
0.94            (-1.00010000e+01  1.00000000e-03   1.79769313e+307 ) (-2.00010000e+01  1.00000000e-03   1.79769313e+307 ) (-3.00010000e+01  1.00000000e-03   1.79769313e+307 ) (-4.00010000e+01  1.00000000e-03   1.79769313e+307 ) (-5.00010000e+01  1.00000000e-03   1.79769313e+307 ) 
0.96            (-1.00010000e+01  1.00000000e-03   1.79769313e+307 ) (-2.00010000e+01  1.00000000e-03   1.79769313e+307 ) (-3.00010000e+01  1.00000000e-03   1.79769313e+307 ) (-4.00010000e+01  1.00000000e-03   1.79769313e+307 ) (-5.00010000e+01  1.00000000e-03   1.79769313e+307 ) 
0.98            (-1.00010000e+01  1.00000000e-03   1.79769313e+307 ) (-2.00010000e+01  1.00000000e-03   1.79769313e+307 ) (-3.00010000e+01  1.00000000e-03   1.79769313e+307 ) (-4.00010000e+01  1.00000000e-03   1.79769313e+307 ) (-5.00010000e+01  1.00000000e-03   1.79769313e+307 ) 
1               (-1.00010000e+01  1.00000000e-03   1.79769313e+307 ) (-2.00010000e+01  1.00000000e-03   1.79769313e+307 ) (-3.00010000e+01  1.00000000e-03   1.79769313e+307 ) (-4.00010000e+01  1.00000000e-03   1.79769313e+307 ) (-5.00010000e+01  1.00000000e-03   1.79769313e+307 ) 
1.02            (-1.00010000e+01  1.00000000e-03   1.79769313e+307 ) (-2.00010000e+01  1.00000000e-03   1.79769313e+307 ) (-3.00010000e+01  1.00000000e-03   1.79769313e+307 ) (-4.00010000e+01  1.00000000e-03   1.79769313e+307 ) (-5.00010000e+01  1.00000000e-03   1.79769313e+307 ) 
1.04            (-1.00010000e+01  1.00000000e-03   1.79769313e+307 ) (-2.00010000e+01  1.00000000e-03   1.79769313e+307 ) (-3.00010000e+01  1.00000000e-03   1.79769313e+307 ) (-4.00010000e+01  1.00000000e-03   1.79769313e+307 ) (-5.00010000e+01  1.00000000e-03   1.79769313e+307 ) 
1.06            (-1.00010000e+01  1.00000000e-03   1.79769313e+307 ) (-2.00010000e+01  1.00000000e-03   1.79769313e+307 ) (-3.00010000e+01  1.00000000e-03   1.79769313e+307 ) (-4.00010000e+01  1.00000000e-03   1.79769313e+307 ) (-5.00010000e+01  1.00000000e-03   1.79769313e+307 ) 
1.08            (-1.00010000e+01  1.00000000e-03   1.79769313e+307 ) (-2.00010000e+01  1.00000000e-03   1.79769313e+307 ) (-3.00010000e+01  1.00000000e-03   1.79769313e+307 ) (-4.00010000e+01  1.00000000e-03   1.79769313e+307 ) (-5.00010000e+01  1.00000000e-03   1.79769313e+307 ) 
1.1             (-1.00010000e+01  1.00000000e-03   1.79769313e+307 ) (-2.00010000e+01  1.00000000e-03   1.79769313e+307 ) (-3.00010000e+01  1.00000000e-03   1.79769313e+307 ) (-4.00010000e+01  1.00000000e-03   1.79769313e+307 ) (-5.00010000e+01  1.00000000e-03   1.79769313e+307 ) 
1.12            (-1.00010000e+01  1.00000000e-03   1.79769313e+307 ) (-2.00010000e+01  1.00000000e-03   1.79769313e+307 ) (-3.00010000e+01  1.00000000e-03   1.79769313e+307 ) (-4.00010000e+01  1.00000000e-03   1.79769313e+307 ) (-5.00010000e+01  1.00000000e-03   1.79769313e+307 ) 
1.14            (-1.00010000e+01  1.00000000e-03   1.79769313e+307 ) (-2.00010000e+01  1.00000000e-03   1.79769313e+307 ) (-3.00010000e+01  1.00000000e-03   1.79769313e+307 ) (-4.00010000e+01  1.00000000e-03   1.79769313e+307 ) (-5.00010000e+01  1.00000000e-03   1.79769313e+307 ) 
1.16            (-1.00010000e+01  1.00000000e-03   1.79769313e+307 ) (-2.00010000e+01  1.00000000e-03   1.79769313e+307 ) (-3.00010000e+01  1.00000000e-03   1.79769313e+307 ) (-4.00010000e+01  1.00000000e-03   1.79769313e+307 ) (-5.00010000e+01  1.00000000e-03   1.79769313e+307 ) 
1.18            (-1.00010000e+01  1.00000000e-03   1.79769313e+307 ) (-2.00010000e+01  1.00000000e-03   1.79769313e+307 ) (-3.00010000e+01  1.00000000e-03   1.79769313e+307 ) (-4.00010000e+01  1.00000000e-03   1.79769313e+307 ) (-5.00010000e+01  1.00000000e-03   1.79769313e+307 ) 
1.2             (-1.00010000e+01  1.00000000e-03   1.79769313e+307 ) (-2.00010000e+01  1.00000000e-03   1.79769313e+307 ) (-3.00010000e+01  1.00000000e-03   1.79769313e+307 ) (-4.00010000e+01  1.00000000e-03   1.79769313e+307 ) (-5.00010000e+01  1.00000000e-03   1.79769313e+307 ) 
1.22            (-1.00010000e+01  1.00000000e-03   1.79769313e+307 ) (-2.00010000e+01  1.00000000e-03   1.79769313e+307 ) (-3.00010000e+01  1.00000000e-03   1.79769313e+307 ) (-4.00010000e+01  1.00000000e-03   1.79769313e+307 ) (-5.00010000e+01  1.00000000e-03   1.79769313e+307 ) 
1.24            (-1.00010000e+01  1.00000000e-03   1.79769313e+307 ) (-2.00010000e+01  1.00000000e-03   1.79769313e+307 ) (-3.00010000e+01  1.00000000e-03   1.79769313e+307 ) (-4.00010000e+01  1.00000000e-03   1.79769313e+307 ) (-5.00010000e+01  1.00000000e-03   1.79769313e+307 ) 
1.26            (-1.00010000e+01  1.00000000e-03   1.79769313e+307 ) (-2.00010000e+01  1.00000000e-03   1.79769313e+307 ) (-3.00010000e+01  1.00000000e-03   1.79769313e+307 ) (-4.00010000e+01  1.00000000e-03   1.79769313e+307 ) (-5.00010000e+01  1.00000000e-03   1.79769313e+307 ) 
1.28            (-1.00010000e+01  1.00000000e-03   1.79769313e+307 ) (-2.00010000e+01  1.00000000e-03   1.79769313e+307 ) (-3.00010000e+01  1.00000000e-03   1.79769313e+307 ) (-4.00010000e+01  1.00000000e-03   1.79769313e+307 ) (-5.00010000e+01  1.00000000e-03   1.79769313e+307 ) 
1.3             (-1.00010000e+01  1.00000000e-03   1.79769313e+307 ) (-2.00010000e+01  1.00000000e-03   1.79769313e+307 ) (-3.00010000e+01  1.00000000e-03   1.79769313e+307 ) (-4.00010000e+01  1.00000000e-03   1.79769313e+307 ) (-5.00010000e+01  1.00000000e-03   1.79769313e+307 ) 
1.32            (-1.00010000e+01  1.00000000e-03   1.79769313e+307 ) (-2.00010000e+01  1.00000000e-03   1.79769313e+307 ) (-3.00010000e+01  1.00000000e-03   1.79769313e+307 ) (-4.00010000e+01  1.00000000e-03   1.79769313e+307 ) (-5.00010000e+01  1.00000000e-03   1.79769313e+307 ) 
1.34            (-1.00010000e+01  1.00000000e-03   1.79769313e+307 ) (-2.00010000e+01  1.00000000e-03   1.79769313e+307 ) (-3.00010000e+01  1.00000000e-03   1.79769313e+307 ) (-4.00010000e+01  1.00000000e-03   1.79769313e+307 ) (-5.00010000e+01  1.00000000e-03   1.79769313e+307 ) 
1.36            (-1.00010000e+01  1.00000000e-03   1.79769313e+307 ) (-2.00010000e+01  1.00000000e-03   1.79769313e+307 ) (-3.00010000e+01  1.00000000e-03   1.79769313e+307 ) (-4.00010000e+01  1.00000000e-03   1.79769313e+307 ) (-5.00010000e+01  1.00000000e-03   1.79769313e+307 ) 
1.38            (-1.00010000e+01  1.00000000e-03   1.79769313e+307 ) (-2.00010000e+01  1.00000000e-03   1.79769313e+307 ) (-3.00010000e+01  1.00000000e-03   1.79769313e+307 ) (-4.00010000e+01  1.00000000e-03   1.79769313e+307 ) (-5.00010000e+01  1.00000000e-03   1.79769313e+307 ) 
1.4             (-1.00010000e+01  1.00000000e-03   1.79769313e+307 ) (-2.00010000e+01  1.00000000e-03   1.79769313e+307 ) (-3.00010000e+01  1.00000000e-03   1.79769313e+307 ) (-4.00010000e+01  1.00000000e-03   1.79769313e+307 ) (-5.00010000e+01  1.00000000e-03   1.79769313e+307 ) 
1.42            (-1.00010000e+01  1.00000000e-03   1.79769313e+307 ) (-2.00010000e+01  1.00000000e-03   1.79769313e+307 ) (-3.00010000e+01  1.00000000e-03   1.79769313e+307 ) (-4.00010000e+01  1.00000000e-03   1.79769313e+307 ) (-5.00010000e+01  1.00000000e-03   1.79769313e+307 ) 
1.44            (-1.00010000e+01  1.00000000e-03   1.79769313e+307 ) (-2.00010000e+01  1.00000000e-03   1.79769313e+307 ) (-3.00010000e+01  1.00000000e-03   1.79769313e+307 ) (-4.00010000e+01  1.00000000e-03   1.79769313e+307 ) (-5.00010000e+01  1.00000000e-03   1.79769313e+307 ) 
1.46            (-1.00010000e+01  1.00000000e-03   1.79769313e+307 ) (-2.00010000e+01  1.00000000e-03   1.79769313e+307 ) (-3.00010000e+01  1.00000000e-03   1.79769313e+307 ) (-4.00010000e+01  1.00000000e-03   1.79769313e+307 ) (-5.00010000e+01  1.00000000e-03   1.79769313e+307 ) 
1.48            (-1.00010000e+01  1.00000000e-03   1.79769313e+307 ) (-2.00010000e+01  1.00000000e-03   1.79769313e+307 ) (-3.00010000e+01  1.00000000e-03   1.79769313e+307 ) (-4.00010000e+01  1.00000000e-03   1.79769313e+307 ) (-5.00010000e+01  1.00000000e-03   1.79769313e+307 ) 
1.5             (-1.00010000e+01  1.00000000e-03   1.79769313e+307 ) (-2.00010000e+01  1.00000000e-03   1.79769313e+307 ) (-3.00010000e+01  1.00000000e-03   1.79769313e+307 ) (-4.00010000e+01  1.00000000e-03   1.79769313e+307 ) (-5.00010000e+01  1.00000000e-03   1.79769313e+307 ) 
1.52            (-1.00010000e+01  1.00000000e-03   1.79769313e+307 ) (-2.00010000e+01  1.00000000e-03   1.79769313e+307 ) (-3.00010000e+01  1.00000000e-03   1.79769313e+307 ) (-4.00010000e+01  1.00000000e-03   1.79769313e+307 ) (-5.00010000e+01  1.00000000e-03   1.79769313e+307 ) 
1.54            (-1.00010000e+01  1.00000000e-03   1.79769313e+307 ) (-2.00010000e+01  1.00000000e-03   1.79769313e+307 ) (-3.00010000e+01  1.00000000e-03   1.79769313e+307 ) (-4.00010000e+01  1.00000000e-03   1.79769313e+307 ) (-5.00010000e+01  1.00000000e-03   1.79769313e+307 ) 
1.56            (-1.00010000e+01  1.00000000e-03   1.79769313e+307 ) (-2.00010000e+01  1.00000000e-03   1.79769313e+307 ) (-3.00010000e+01  1.00000000e-03   1.79769313e+307 ) (-4.00010000e+01  1.00000000e-03   1.79769313e+307 ) (-5.00010000e+01  1.00000000e-03   1.79769313e+307 ) 
1.58            (-1.00010000e+01  1.00000000e-03   1.79769313e+307 ) (-2.00010000e+01  1.00000000e-03   1.79769313e+307 ) (-3.00010000e+01  1.00000000e-03   1.79769313e+307 ) (-4.00010000e+01  1.00000000e-03   1.79769313e+307 ) (-5.00010000e+01  1.00000000e-03   1.79769313e+307 ) 
1.6             (-1.00010000e+01  1.00000000e-03   1.79769313e+307 ) (-2.00010000e+01  1.00000000e-03   1.79769313e+307 ) (-3.00010000e+01  1.00000000e-03   1.79769313e+307 ) (-4.00010000e+01  1.00000000e-03   1.79769313e+307 ) (-5.00010000e+01  1.00000000e-03   1.79769313e+307 ) 
1.62            (-1.00010000e+01  1.00000000e-03   1.79769313e+307 ) (-2.00010000e+01  1.00000000e-03   1.79769313e+307 ) (-3.00010000e+01  1.00000000e-03   1.79769313e+307 ) (-4.00010000e+01  1.00000000e-03   1.79769313e+307 ) (-5.00010000e+01  1.00000000e-03   1.79769313e+307 ) 
1.64            (-1.00010000e+01  1.00000000e-03   1.79769313e+307 ) (-2.00010000e+01  1.00000000e-03   1.79769313e+307 ) (-3.00010000e+01  1.00000000e-03   1.79769313e+307 ) (-4.00010000e+01  1.00000000e-03   1.79769313e+307 ) (-5.00010000e+01  1.00000000e-03   1.79769313e+307 ) 
1.66            (-1.00010000e+01  1.00000000e-03   1.79769313e+307 ) (-2.00010000e+01  1.00000000e-03   1.79769313e+307 ) (-3.00010000e+01  1.00000000e-03   1.79769313e+307 ) (-4.00010000e+01  1.00000000e-03   1.79769313e+307 ) (-5.00010000e+01  1.00000000e-03   1.79769313e+307 ) 
1.68            (-1.00010000e+01  1.00000000e-03   1.79769313e+307 ) (-2.00010000e+01  1.00000000e-03   1.79769313e+307 ) (-3.00010000e+01  1.00000000e-03   1.79769313e+307 ) (-4.00010000e+01  1.00000000e-03   1.79769313e+307 ) (-5.00010000e+01  1.00000000e-03   1.79769313e+307 ) 