# Location 0    : (-1.00010000e+01 1.00000000e-03 -5.00100000e+00)
# Location 1    : (-2.00010000e+01 1.00000000e-03 -5.00100000e+00)
# Location 2    : (-3.00010000e+01 1.00000000e-03 -5.00100000e+00)
# Location 3    : (-4.00010000e+01 1.00000000e-03 -5.00100000e+00)
# Location 4    : (-5.00010000e+01 1.00000000e-03 -5.00100000e+00)
# p             : Interface position
# Location      0                                                    1                                                    2                                                    3                                                    4                                                    
# Time          p                                                    p                                                    p                                                    p                                                    p                                                    
0               (-1.00010000e+01  1.00000000e-03   1.79769313e+307 ) (-2.00010000e+01  1.00000000e-03   1.79769313e+307 ) (-3.00010000e+01  1.00000000e-03   1.79769313e+307 ) (-4.00010000e+01  1.00000000e-03   1.79769313e+307 ) (-5.00010000e+01  1.00000000e-03   1.79769313e+307 ) 
0.001190476     (-1.00010000e+01  1.00000000e-03   1.79769313e+307 ) (-2.00010000e+01  1.00000000e-03   1.79769313e+307 ) (-3.00010000e+01  1.00000000e-03   1.79769313e+307 ) (-4.00010000e+01  1.00000000e-03   1.79769313e+307 ) (-5.00010000e+01  1.00000000e-03   1.79769313e+307 ) 
0.001607394     (-1.00010000e+01  1.00000000e-03   1.79769313e+307 ) (-2.00010000e+01  1.00000000e-03   1.79769313e+307 ) (-3.00010000e+01  1.00000000e-03   1.79769313e+307 ) (-4.00010000e+01  1.00000000e-03   1.79769313e+307 ) (-5.00010000e+01  1.00000000e-03   1.79769313e+307 ) 
0.00207371      (-1.00010000e+01  1.00000000e-03   1.79769313e+307 ) (-2.00010000e+01  1.00000000e-03   1.79769313e+307 ) (-3.00010000e+01  1.00000000e-03   1.79769313e+307 ) (-4.00010000e+01  1.00000000e-03   1.79769313e+307 ) (-5.00010000e+01  1.00000000e-03   1.79769313e+307 ) 
0.002594594     (-1.00010000e+01  1.00000000e-03   1.79769313e+307 ) (-2.00010000e+01  1.00000000e-03   1.79769313e+307 ) (-3.00010000e+01  1.00000000e-03   1.79769313e+307 ) (-4.00010000e+01  1.00000000e-03   1.79769313e+307 ) (-5.00010000e+01  1.00000000e-03   1.79769313e+307 ) 
0.003174388     (-1.00010000e+01  1.00000000e-03   1.79769313e+307 ) (-2.00010000e+01  1.00000000e-03   1.79769313e+307 ) (-3.00010000e+01  1.00000000e-03   1.79769313e+307 ) (-4.00010000e+01  1.00000000e-03   1.79769313e+307 ) (-5.00010000e+01  1.00000000e-03   1.79769313e+307 ) 
0.003783354     (-1.00010000e+01  1.00000000e-03   1.79769313e+307 ) (-2.00010000e+01  1.00000000e-03   1.79769313e+307 ) (-3.00010000e+01  1.00000000e-03   1.79769313e+307 ) (-4.00010000e+01  1.00000000e-03   1.79769313e+307 ) (-5.00010000e+01  1.00000000e-03   1.79769313e+307 ) 
0.004416359     (-1.00010000e+01  1.00000000e-03   1.79769313e+307 ) (-2.00010000e+01  1.00000000e-03   1.79769313e+307 ) (-3.00010000e+01  1.00000000e-03   1.79769313e+307 ) (-4.00010000e+01  1.00000000e-03   1.79769313e+307 ) (-5.00010000e+01  1.00000000e-03   1.79769313e+307 ) 
0.005002761     (-1.00010000e+01  1.00000000e-03   1.79769313e+307 ) (-2.00010000e+01  1.00000000e-03   1.79769313e+307 ) (-3.00010000e+01  1.00000000e-03   1.79769313e+307 ) (-4.00010000e+01  1.00000000e-03   1.79769313e+307 ) (-5.00010000e+01  1.00000000e-03   1.79769313e+307 ) 
0.005450862     (-1.00010000e+01  1.00000000e-03   1.79769313e+307 ) (-2.00010000e+01  1.00000000e-03   1.79769313e+307 ) (-3.00010000e+01  1.00000000e-03   1.79769313e+307 ) (-4.00010000e+01  1.00000000e-03   1.79769313e+307 ) (-5.00010000e+01  1.00000000e-03   1.79769313e+307 ) 
0.005781453     (-1.00010000e+01  1.00000000e-03   1.79769313e+307 ) (-2.00010000e+01  1.00000000e-03   1.79769313e+307 ) (-3.00010000e+01  1.00000000e-03   1.79769313e+307 ) (-4.00010000e+01  1.00000000e-03   1.79769313e+307 ) (-5.00010000e+01  1.00000000e-03   1.79769313e+307 ) 
0.00602366      (-1.00010000e+01  1.00000000e-03   1.79769313e+307 ) (-2.00010000e+01  1.00000000e-03   1.79769313e+307 ) (-3.00010000e+01  1.00000000e-03   1.79769313e+307 ) (-4.00010000e+01  1.00000000e-03   1.79769313e+307 ) (-5.00010000e+01  1.00000000e-03   1.79769313e+307 ) 
0.006224036     (-1.00010000e+01  1.00000000e-03   1.79769313e+307 ) (-2.00010000e+01  1.00000000e-03   1.79769313e+307 ) (-3.00010000e+01  1.00000000e-03   1.79769313e+307 ) (-4.00010000e+01  1.00000000e-03   1.79769313e+307 ) (-5.00010000e+01  1.00000000e-03   1.79769313e+307 ) 
0.006411214     (-1.00010000e+01  1.00000000e-03   1.79769313e+307 ) (-2.00010000e+01  1.00000000e-03   1.79769313e+307 ) (-3.00010000e+01  1.00000000e-03   1.79769313e+307 ) (-4.00010000e+01  1.00000000e-03   1.79769313e+307 ) (-5.00010000e+01  1.00000000e-03   1.79769313e+307 ) 
0.006572296     (-1.00010000e+01  1.00000000e-03   1.79769313e+307 ) (-2.00010000e+01  1.00000000e-03   1.79769313e+307 ) (-3.00010000e+01  1.00000000e-03   1.79769313e+307 ) (-4.00010000e+01  1.00000000e-03   1.79769313e+307 ) (-5.00010000e+01  1.00000000e-03   1.79769313e+307 ) 
0.006694264     (-1.00010000e+01  1.00000000e-03   1.79769313e+307 ) (-2.00010000e+01  1.00000000e-03   1.79769313e+307 ) (-3.00010000e+01  1.00000000e-03   1.79769313e+307 ) (-4.00010000e+01  1.00000000e-03   1.79769313e+307 ) (-5.00010000e+01  1.00000000e-03   1.79769313e+307 ) 
0.006802257     (-1.00010000e+01  1.00000000e-03   1.79769313e+307 ) (-2.00010000e+01  1.00000000e-03   1.79769313e+307 ) (-3.00010000e+01  1.00000000e-03   1.79769313e+307 ) (-4.00010000e+01  1.00000000e-03   1.79769313e+307 ) (-5.00010000e+01  1.00000000e-03   1.79769313e+307 ) 
0.006917316     (-1.00010000e+01  1.00000000e-03   1.79769313e+307 ) (-2.00010000e+01  1.00000000e-03   1.79769313e+307 ) (-3.00010000e+01  1.00000000e-03   1.79769313e+307 ) (-4.00010000e+01  1.00000000e-03   1.79769313e+307 ) (-5.00010000e+01  1.00000000e-03   1.79769313e+307 ) 
0.007045001     (-1.00010000e+01  1.00000000e-03   1.79769313e+307 ) (-2.00010000e+01  1.00000000e-03   1.79769313e+307 ) (-3.00010000e+01  1.00000000e-03   1.79769313e+307 ) (-4.00010000e+01  1.00000000e-03   1.79769313e+307 ) (-5.00010000e+01  1.00000000e-03   1.79769313e+307 ) 
0.007186917     (-1.00010000e+01  1.00000000e-03   1.79769313e+307 ) (-2.00010000e+01  1.00000000e-03   1.79769313e+307 ) (-3.00010000e+01  1.00000000e-03   1.79769313e+307 ) (-4.00010000e+01  1.00000000e-03   1.79769313e+307 ) (-5.00010000e+01  1.00000000e-03   1.79769313e+307 ) 
0.007344495     (-1.00010000e+01  1.00000000e-03   1.79769313e+307 ) (-2.00010000e+01  1.00000000e-03   1.79769313e+307 ) (-3.00010000e+01  1.00000000e-03   1.79769313e+307 ) (-4.00010000e+01  1.00000000e-03   1.79769313e+307 ) (-5.00010000e+01  1.00000000e-03   1.79769313e+307 ) 
0.007517037     (-1.00010000e+01  1.00000000e-03   1.79769313e+307 ) (-2.00010000e+01  1.00000000e-03   1.79769313e+307 ) (-3.00010000e+01  1.00000000e-03   1.79769313e+307 ) (-4.00010000e+01  1.00000000e-03   1.79769313e+307 ) (-5.00010000e+01  1.00000000e-03   1.79769313e+307 ) 
0.007706552     (-1.00010000e+01  1.00000000e-03   1.79769313e+307 ) (-2.00010000e+01  1.00000000e-03   1.79769313e+307 ) (-3.00010000e+01  1.00000000e-03   1.79769313e+307 ) (-4.00010000e+01  1.00000000e-03   1.79769313e+307 ) (-5.00010000e+01  1.00000000e-03   1.79769313e+307 ) 
0.007902089     (-1.00010000e+01  1.00000000e-03   1.79769313e+307 ) (-2.00010000e+01  1.00000000e-03   1.79769313e+307 ) (-3.00010000e+01  1.00000000e-03   1.79769313e+307 ) (-4.00010000e+01  1.00000000e-03   1.79769313e+307 ) (-5.00010000e+01  1.00000000e-03   1.79769313e+307 ) 
0.008096799     (-1.00010000e+01  1.00000000e-03   1.79769313e+307 ) (-2.00010000e+01  1.00000000e-03   1.79769313e+307 ) (-3.00010000e+01  1.00000000e-03   1.79769313e+307 ) (-4.00010000e+01  1.00000000e-03   1.79769313e+307 ) (-5.00010000e+01  1.00000000e-03   1.79769313e+307 ) 
0.00828629      (-1.00010000e+01  1.00000000e-03   1.79769313e+307 ) (-2.00010000e+01  1.00000000e-03   1.79769313e+307 ) (-3.00010000e+01  1.00000000e-03   1.79769313e+307 ) (-4.00010000e+01  1.00000000e-03   1.79769313e+307 ) (-5.00010000e+01  1.00000000e-03   1.79769313e+307 ) 
0.008483949     (-1.00010000e+01  1.00000000e-03   1.79769313e+307 ) (-2.00010000e+01  1.00000000e-03   1.79769313e+307 ) (-3.00010000e+01  1.00000000e-03   1.79769313e+307 ) (-4.00010000e+01  1.00000000e-03   1.79769313e+307 ) (-5.00010000e+01  1.00000000e-03   1.79769313e+307 ) 
0.008695302     (-1.00010000e+01  1.00000000e-03   1.79769313e+307 ) (-2.00010000e+01  1.00000000e-03   1.79769313e+307 ) (-3.00010000e+01  1.00000000e-03   1.79769313e+307 ) (-4.00010000e+01  1.00000000e-03   1.79769313e+307 ) (-5.00010000e+01  1.00000000e-03   1.79769313e+307 ) 
0.008930019     (-1.00010000e+01  1.00000000e-03   1.79769313e+307 ) (-2.00010000e+01  1.00000000e-03   1.79769313e+307 ) (-3.00010000e+01  1.00000000e-03   1.79769313e+307 ) (-4.00010000e+01  1.00000000e-03   1.79769313e+307 ) (-5.00010000e+01  1.00000000e-03   1.79769313e+307 ) 
0.009162934     (-1.00010000e+01  1.00000000e-03   1.79769313e+307 ) (-2.00010000e+01  1.00000000e-03   1.79769313e+307 ) (-3.00010000e+01  1.00000000e-03   1.79769313e+307 ) (-4.00010000e+01  1.00000000e-03   1.79769313e+307 ) (-5.00010000e+01  1.00000000e-03   1.79769313e+307 ) 
0.009409105     (-1.00010000e+01  1.00000000e-03   1.79769313e+307 ) (-2.00010000e+01  1.00000000e-03   1.79769313e+307 ) (-3.00010000e+01  1.00000000e-03   1.79769313e+307 ) (-4.00010000e+01  1.00000000e-03   1.79769313e+307 ) (-5.00010000e+01  1.00000000e-03   1.79769313e+307 ) 
0.009653946     (-1.00010000e+01  1.00000000e-03   1.79769313e+307 ) (-2.00010000e+01  1.00000000e-03   1.79769313e+307 ) (-3.00010000e+01  1.00000000e-03   1.79769313e+307 ) (-4.00010000e+01  1.00000000e-03   1.79769313e+307 ) (-5.00010000e+01  1.00000000e-03   1.79769313e+307 ) 
0.009923635     (-1.00010000e+01  1.00000000e-03   1.79769313e+307 ) (-2.00010000e+01  1.00000000e-03   1.79769313e+307 ) (-3.00010000e+01  1.00000000e-03   1.79769313e+307 ) (-4.00010000e+01  1.00000000e-03   1.79769313e+307 ) (-5.00010000e+01  1.00000000e-03   1.79769313e+307 ) 
0.01020869      (-1.00010000e+01  1.00000000e-03   1.79769313e+307 ) (-2.00010000e+01  1.00000000e-03   1.79769313e+307 ) (-3.00010000e+01  1.00000000e-03   1.79769313e+307 ) (-4.00010000e+01  1.00000000e-03   1.79769313e+307 ) (-5.00010000e+01  1.00000000e-03   1.79769313e+307 ) 
0.01051514      (-1.00010000e+01  1.00000000e-03   1.79769313e+307 ) (-2.00010000e+01  1.00000000e-03   1.79769313e+307 ) (-3.00010000e+01  1.00000000e-03   1.79769313e+307 ) (-4.00010000e+01  1.00000000e-03   1.79769313e+307 ) (-5.00010000e+01  1.00000000e-03   1.79769313e+307 ) 
0.01085669      (-1.00010000e+01  1.00000000e-03   1.79769313e+307 ) (-2.00010000e+01  1.00000000e-03   1.79769313e+307 ) (-3.00010000e+01  1.00000000e-03   1.79769313e+307 ) (-4.00010000e+01  1.00000000e-03   1.79769313e+307 ) (-5.00010000e+01  1.00000000e-03   1.79769313e+307 ) 
0.01122812      (-1.00010000e+01  1.00000000e-03   1.79769313e+307 ) (-2.00010000e+01  1.00000000e-03   1.79769313e+307 ) (-3.00010000e+01  1.00000000e-03   1.79769313e+307 ) (-4.00010000e+01  1.00000000e-03   1.79769313e+307 ) (-5.00010000e+01  1.00000000e-03   1.79769313e+307 ) 
0.01162091      (-1.00010000e+01  1.00000000e-03   1.79769313e+307 ) (-2.00010000e+01  1.00000000e-03   1.79769313e+307 ) (-3.00010000e+01  1.00000000e-03   1.79769313e+307 ) (-4.00010000e+01  1.00000000e-03   1.79769313e+307 ) (-5.00010000e+01  1.00000000e-03   1.79769313e+307 ) 
0.01205628      (-1.00010000e+01  1.00000000e-03   1.79769313e+307 ) (-2.00010000e+01  1.00000000e-03   1.79769313e+307 ) (-3.00010000e+01  1.00000000e-03   1.79769313e+307 ) (-4.00010000e+01  1.00000000e-03   1.79769313e+307 ) (-5.00010000e+01  1.00000000e-03   1.79769313e+307 ) 
0.01253685      (-1.00010000e+01  1.00000000e-03   1.79769313e+307 ) (-2.00010000e+01  1.00000000e-03   1.79769313e+307 ) (-3.00010000e+01  1.00000000e-03   1.79769313e+307 ) (-4.00010000e+01  1.00000000e-03   1.79769313e+307 ) (-5.00010000e+01  1.00000000e-03   1.79769313e+307 ) 
0.01305746      (-1.00010000e+01  1.00000000e-03   1.79769313e+307 ) (-2.00010000e+01  1.00000000e-03   1.79769313e+307 ) (-3.00010000e+01  1.00000000e-03   1.79769313e+307 ) (-4.00010000e+01  1.00000000e-03   1.79769313e+307 ) (-5.00010000e+01  1.00000000e-03   1.79769313e+307 ) 
0.01363708      (-1.00010000e+01  1.00000000e-03   1.79769313e+307 ) (-2.00010000e+01  1.00000000e-03   1.79769313e+307 ) (-3.00010000e+01  1.00000000e-03   1.79769313e+307 ) (-4.00010000e+01  1.00000000e-03   1.79769313e+307 ) (-5.00010000e+01  1.00000000e-03   1.79769313e+307 ) 
0.01428158      (-1.00010000e+01  1.00000000e-03   1.79769313e+307 ) (-2.00010000e+01  1.00000000e-03   1.79769313e+307 ) (-3.00010000e+01  1.00000000e-03   1.79769313e+307 ) (-4.00010000e+01  1.00000000e-03   1.79769313e+307 ) (-5.00010000e+01  1.00000000e-03   1.79769313e+307 ) 
0.01495652      (-1.00010000e+01  1.00000000e-03   1.79769313e+307 ) (-2.00010000e+01  1.00000000e-03   1.79769313e+307 ) (-3.00010000e+01  1.00000000e-03   1.79769313e+307 ) (-4.00010000e+01  1.00000000e-03   1.79769313e+307 ) (-5.00010000e+01  1.00000000e-03   1.79769313e+307 ) 
0.01565936      (-1.00010000e+01  1.00000000e-03   1.79769313e+307 ) (-2.00010000e+01  1.00000000e-03   1.79769313e+307 ) (-3.00010000e+01  1.00000000e-03   1.79769313e+307 ) (-4.00010000e+01  1.00000000e-03   1.79769313e+307 ) (-5.00010000e+01  1.00000000e-03   1.79769313e+307 ) 
0.01639276      (-1.00010000e+01  1.00000000e-03   1.79769313e+307 ) (-2.00010000e+01  1.00000000e-03   1.79769313e+307 ) (-3.00010000e+01  1.00000000e-03   1.79769313e+307 ) (-4.00010000e+01  1.00000000e-03   1.79769313e+307 ) (-5.00010000e+01  1.00000000e-03   1.79769313e+307 ) 
0.01715283      (-1.00010000e+01  1.00000000e-03   1.79769313e+307 ) (-2.00010000e+01  1.00000000e-03   1.79769313e+307 ) (-3.00010000e+01  1.00000000e-03   1.79769313e+307 ) (-4.00010000e+01  1.00000000e-03   1.79769313e+307 ) (-5.00010000e+01  1.00000000e-03   1.79769313e+307 ) 
0.01794185      (-1.00010000e+01  1.00000000e-03   1.79769313e+307 ) (-2.00010000e+01  1.00000000e-03   1.79769313e+307 ) (-3.00010000e+01  1.00000000e-03   1.79769313e+307 ) (-4.00010000e+01  1.00000000e-03   1.79769313e+307 ) (-5.00010000e+01  1.00000000e-03   1.79769313e+307 ) 
0.01876243      (-1.00010000e+01  1.00000000e-03   1.79769313e+307 ) (-2.00010000e+01  1.00000000e-03   1.79769313e+307 ) (-3.00010000e+01  1.00000000e-03   1.79769313e+307 ) (-4.00010000e+01  1.00000000e-03   1.79769313e+307 ) (-5.00010000e+01  1.00000000e-03   1.79769313e+307 ) 
0.01960865      (-1.00010000e+01  1.00000000e-03   1.79769313e+307 ) (-2.00010000e+01  1.00000000e-03   1.79769313e+307 ) (-3.00010000e+01  1.00000000e-03   1.79769313e+307 ) (-4.00010000e+01  1.00000000e-03   1.79769313e+307 ) (-5.00010000e+01  1.00000000e-03   1.79769313e+307 ) 
0.02031384      (-1.00010000e+01  1.00000000e-03   1.79769313e+307 ) (-2.00010000e+01  1.00000000e-03   1.79769313e+307 ) (-3.00010000e+01  1.00000000e-03   1.79769313e+307 ) (-4.00010000e+01  1.00000000e-03   1.79769313e+307 ) (-5.00010000e+01  1.00000000e-03   1.79769313e+307 ) 
0.02094627      (-1.00010000e+01  1.00000000e-03   1.79769313e+307 ) (-2.00010000e+01  1.00000000e-03   1.79769313e+307 ) (-3.00010000e+01  1.00000000e-03   1.79769313e+307 ) (-4.00010000e+01  1.00000000e-03   1.79769313e+307 ) (-5.00010000e+01  1.00000000e-03   1.79769313e+307 ) 
0.02164586      (-1.00010000e+01  1.00000000e-03   1.79769313e+307 ) (-2.00010000e+01  1.00000000e-03   1.79769313e+307 ) (-3.00010000e+01  1.00000000e-03   1.79769313e+307 ) (-4.00010000e+01  1.00000000e-03   1.79769313e+307 ) (-5.00010000e+01  1.00000000e-03   1.79769313e+307 ) 
0.02242164      (-1.00010000e+01  1.00000000e-03   1.79769313e+307 ) (-2.00010000e+01  1.00000000e-03   1.79769313e+307 ) (-3.00010000e+01  1.00000000e-03   1.79769313e+307 ) (-4.00010000e+01  1.00000000e-03   1.79769313e+307 ) (-5.00010000e+01  1.00000000e-03   1.79769313e+307 ) 
0.02328363      (-1.00010000e+01  1.00000000e-03   1.79769313e+307 ) (-2.00010000e+01  1.00000000e-03   1.79769313e+307 ) (-3.00010000e+01  1.00000000e-03   1.79769313e+307 ) (-4.00010000e+01  1.00000000e-03   1.79769313e+307 ) (-5.00010000e+01  1.00000000e-03   1.79769313e+307 ) 
0.02419692      (-1.00010000e+01  1.00000000e-03   1.79769313e+307 ) (-2.00010000e+01  1.00000000e-03   1.79769313e+307 ) (-3.00010000e+01  1.00000000e-03   1.79769313e+307 ) (-4.00010000e+01  1.00000000e-03   1.79769313e+307 ) (-5.00010000e+01  1.00000000e-03   1.79769313e+307 ) 
0.02520762      (-1.00010000e+01  1.00000000e-03   1.79769313e+307 ) (-2.00010000e+01  1.00000000e-03   1.79769313e+307 ) (-3.00010000e+01  1.00000000e-03   1.79769313e+307 ) (-4.00010000e+01  1.00000000e-03   1.79769313e+307 ) (-5.00010000e+01  1.00000000e-03   1.79769313e+307 ) 
0.02629157      (-1.00010000e+01  1.00000000e-03   1.79769313e+307 ) (-2.00010000e+01  1.00000000e-03   1.79769313e+307 ) (-3.00010000e+01  1.00000000e-03   1.79769313e+307 ) (-4.00010000e+01  1.00000000e-03   1.79769313e+307 ) (-5.00010000e+01  1.00000000e-03   1.79769313e+307 ) 
0.02740837      (-1.00010000e+01  1.00000000e-03   1.79769313e+307 ) (-2.00010000e+01  1.00000000e-03   1.79769313e+307 ) (-3.00010000e+01  1.00000000e-03   1.79769313e+307 ) (-4.00010000e+01  1.00000000e-03   1.79769313e+307 ) (-5.00010000e+01  1.00000000e-03   1.79769313e+307 ) 
0.02854261      (-1.00010000e+01  1.00000000e-03   1.79769313e+307 ) (-2.00010000e+01  1.00000000e-03   1.79769313e+307 ) (-3.00010000e+01  1.00000000e-03   1.79769313e+307 ) (-4.00010000e+01  1.00000000e-03   1.79769313e+307 ) (-5.00010000e+01  1.00000000e-03   1.79769313e+307 ) 
0.02971404      (-1.00010000e+01  1.00000000e-03   1.79769313e+307 ) (-2.00010000e+01  1.00000000e-03   1.79769313e+307 ) (-3.00010000e+01  1.00000000e-03   1.79769313e+307 ) (-4.00010000e+01  1.00000000e-03   1.79769313e+307 ) (-5.00010000e+01  1.00000000e-03   1.79769313e+307 ) 
0.03088547      (-1.00010000e+01  1.00000000e-03   1.79769313e+307 ) (-2.00010000e+01  1.00000000e-03   1.79769313e+307 ) (-3.00010000e+01  1.00000000e-03   1.79769313e+307 ) (-4.00010000e+01  1.00000000e-03   1.79769313e+307 ) (-5.00010000e+01  1.00000000e-03   1.79769313e+307 ) 
0.03205691      (-1.00010000e+01  1.00000000e-03   1.79769313e+307 ) (-2.00010000e+01  1.00000000e-03   1.79769313e+307 ) (-3.00010000e+01  1.00000000e-03   1.79769313e+307 ) (-4.00010000e+01  1.00000000e-03   1.79769313e+307 ) (-5.00010000e+01  1.00000000e-03   1.79769313e+307 ) 
0.03324889      (-1.00010000e+01  1.00000000e-03   1.79769313e+307 ) (-2.00010000e+01  1.00000000e-03   1.79769313e+307 ) (-3.00010000e+01  1.00000000e-03   1.79769313e+307 ) (-4.00010000e+01  1.00000000e-03   1.79769313e+307 ) (-5.00010000e+01  1.00000000e-03   1.79769313e+307 ) 
0.03444088      (-1.00010000e+01  1.00000000e-03   1.79769313e+307 ) (-2.00010000e+01  1.00000000e-03   1.79769313e+307 ) (-3.00010000e+01  1.00000000e-03   1.79769313e+307 ) (-4.00010000e+01  1.00000000e-03   1.79769313e+307 ) (-5.00010000e+01  1.00000000e-03   1.79769313e+307 ) 
0.03563286      (-1.00010000e+01  1.00000000e-03   1.79769313e+307 ) (-2.00010000e+01  1.00000000e-03   1.79769313e+307 ) (-3.00010000e+01  1.00000000e-03   1.79769313e+307 ) (-4.00010000e+01  1.00000000e-03   1.79769313e+307 ) (-5.00010000e+01  1.00000000e-03   1.79769313e+307 ) 
0.03682484      (-1.00010000e+01  1.00000000e-03   1.79769313e+307 ) (-2.00010000e+01  1.00000000e-03   1.79769313e+307 ) (-3.00010000e+01  1.00000000e-03   1.79769313e+307 ) (-4.00010000e+01  1.00000000e-03   1.79769313e+307 ) (-5.00010000e+01  1.00000000e-03   1.79769313e+307 ) 
0.03803975      (-1.00010000e+01  1.00000000e-03   1.79769313e+307 ) (-2.00010000e+01  1.00000000e-03   1.79769313e+307 ) (-3.00010000e+01  1.00000000e-03   1.79769313e+307 ) (-4.00010000e+01  1.00000000e-03   1.79769313e+307 ) (-5.00010000e+01  1.00000000e-03   1.79769313e+307 ) 
0.03925466      (-1.00010000e+01  1.00000000e-03   1.79769313e+307 ) (-2.00010000e+01  1.00000000e-03   1.79769313e+307 ) (-3.00010000e+01  1.00000000e-03   1.79769313e+307 ) (-4.00010000e+01  1.00000000e-03   1.79769313e+307 ) (-5.00010000e+01  1.00000000e-03   1.79769313e+307 ) 
0.04046956      (-1.00010000e+01  1.00000000e-03   1.79769313e+307 ) (-2.00010000e+01  1.00000000e-03   1.79769313e+307 ) (-3.00010000e+01  1.00000000e-03   1.79769313e+307 ) (-4.00010000e+01  1.00000000e-03   1.79769313e+307 ) (-5.00010000e+01  1.00000000e-03   1.79769313e+307 ) 
0.04168447      (-1.00010000e+01  1.00000000e-03   1.79769313e+307 ) (-2.00010000e+01  1.00000000e-03   1.79769313e+307 ) (-3.00010000e+01  1.00000000e-03   1.79769313e+307 ) (-4.00010000e+01  1.00000000e-03   1.79769313e+307 ) (-5.00010000e+01  1.00000000e-03   1.79769313e+307 ) 
0.04289938      (-1.00010000e+01  1.00000000e-03   1.79769313e+307 ) (-2.00010000e+01  1.00000000e-03   1.79769313e+307 ) (-3.00010000e+01  1.00000000e-03   1.79769313e+307 ) (-4.00010000e+01  1.00000000e-03   1.79769313e+307 ) (-5.00010000e+01  1.00000000e-03   1.79769313e+307 ) 
0.0440647       (-1.00010000e+01  1.00000000e-03   1.79769313e+307 ) (-2.00010000e+01  1.00000000e-03   1.79769313e+307 ) (-3.00010000e+01  1.00000000e-03   1.79769313e+307 ) (-4.00010000e+01  1.00000000e-03   1.79769313e+307 ) (-5.00010000e+01  1.00000000e-03   1.79769313e+307 ) 
0.04510054      (-1.00010000e+01  1.00000000e-03   1.79769313e+307 ) (-2.00010000e+01  1.00000000e-03   1.79769313e+307 ) (-3.00010000e+01  1.00000000e-03   1.79769313e+307 ) (-4.00010000e+01  1.00000000e-03   1.79769313e+307 ) (-5.00010000e+01  1.00000000e-03   1.79769313e+307 ) 
0.04601553      (-1.00010000e+01  1.00000000e-03   1.79769313e+307 ) (-2.00010000e+01  1.00000000e-03   1.79769313e+307 ) (-3.00010000e+01  1.00000000e-03   1.79769313e+307 ) (-4.00010000e+01  1.00000000e-03   1.79769313e+307 ) (-5.00010000e+01  1.00000000e-03   1.79769313e+307 ) 
0.04683347      (-1.00010000e+01  1.00000000e-03   1.79769313e+307 ) (-2.00010000e+01  1.00000000e-03   1.79769313e+307 ) (-3.00010000e+01  1.00000000e-03   1.79769313e+307 ) (-4.00010000e+01  1.00000000e-03   1.79769313e+307 ) (-5.00010000e+01  1.00000000e-03   1.79769313e+307 ) 
0.04756178      (-1.00010000e+01  1.00000000e-03   1.79769313e+307 ) (-2.00010000e+01  1.00000000e-03   1.79769313e+307 ) (-3.00010000e+01  1.00000000e-03   1.79769313e+307 ) (-4.00010000e+01  1.00000000e-03   1.79769313e+307 ) (-5.00010000e+01  1.00000000e-03   1.79769313e+307 ) 
0.04830035      (-1.00010000e+01  1.00000000e-03   1.79769313e+307 ) (-2.00010000e+01  1.00000000e-03   1.79769313e+307 ) (-3.00010000e+01  1.00000000e-03   1.79769313e+307 ) (-4.00010000e+01  1.00000000e-03   1.79769313e+307 ) (-5.00010000e+01  1.00000000e-03   1.79769313e+307 ) 
0.04900856      (-1.00010000e+01  1.00000000e-03   1.79769313e+307 ) (-2.00010000e+01  1.00000000e-03   1.79769313e+307 ) (-3.00010000e+01  1.00000000e-03   1.79769313e+307 ) (-4.00010000e+01  1.00000000e-03   1.79769313e+307 ) (-5.00010000e+01  1.00000000e-03   1.79769313e+307 ) 
0.04970708      (-1.00010000e+01  1.00000000e-03   1.79769313e+307 ) (-2.00010000e+01  1.00000000e-03   1.79769313e+307 ) (-3.00010000e+01  1.00000000e-03   1.79769313e+307 ) (-4.00010000e+01  1.00000000e-03   1.79769313e+307 ) (-5.00010000e+01  1.00000000e-03   1.79769313e+307 ) 
0.05038671      (-1.00010000e+01  1.00000000e-03   1.79769313e+307 ) (-2.00010000e+01  1.00000000e-03   1.79769313e+307 ) (-3.00010000e+01  1.00000000e-03   1.79769313e+307 ) (-4.00010000e+01  1.00000000e-03   1.79769313e+307 ) (-5.00010000e+01  1.00000000e-03   1.79769313e+307 ) 
0.05103952      (-1.00010000e+01  1.00000000e-03   1.79769313e+307 ) (-2.00010000e+01  1.00000000e-03   1.79769313e+307 ) (-3.00010000e+01  1.00000000e-03   1.79769313e+307 ) (-4.00010000e+01  1.00000000e-03   1.79769313e+307 ) (-5.00010000e+01  1.00000000e-03   1.79769313e+307 ) 
0.05168373      (-1.00010000e+01  1.00000000e-03   1.79769313e+307 ) (-2.00010000e+01  1.00000000e-03   1.79769313e+307 ) (-3.00010000e+01  1.00000000e-03   1.79769313e+307 ) (-4.00010000e+01  1.00000000e-03   1.79769313e+307 ) (-5.00010000e+01  1.00000000e-03   1.79769313e+307 ) 
0.05231122      (-1.00010000e+01  1.00000000e-03   1.79769313e+307 ) (-2.00010000e+01  1.00000000e-03   1.79769313e+307 ) (-3.00010000e+01  1.00000000e-03   1.79769313e+307 ) (-4.00010000e+01  1.00000000e-03   1.79769313e+307 ) (-5.00010000e+01  1.00000000e-03   1.79769313e+307 ) 
0.05293055      (-1.00010000e+01  1.00000000e-03   1.79769313e+307 ) (-2.00010000e+01  1.00000000e-03   1.79769313e+307 ) (-3.00010000e+01  1.00000000e-03   1.79769313e+307 ) (-4.00010000e+01  1.00000000e-03   1.79769313e+307 ) (-5.00010000e+01  1.00000000e-03   1.79769313e+307 ) 
0.05353401      (-1.00010000e+01  1.00000000e-03   1.79769313e+307 ) (-2.00010000e+01  1.00000000e-03   1.79769313e+307 ) (-3.00010000e+01  1.00000000e-03   1.79769313e+307 ) (-4.00010000e+01  1.00000000e-03   1.79769313e+307 ) (-5.00010000e+01  1.00000000e-03   1.79769313e+307 ) 
0.05413746      (-1.00010000e+01  1.00000000e-03   1.79769313e+307 ) (-2.00010000e+01  1.00000000e-03   1.79769313e+307 ) (-3.00010000e+01  1.00000000e-03   1.79769313e+307 ) (-4.00010000e+01  1.00000000e-03   1.79769313e+307 ) (-5.00010000e+01  1.00000000e-03   1.79769313e+307 ) 
0.05473308      (-1.00010000e+01  1.00000000e-03   1.79769313e+307 ) (-2.00010000e+01  1.00000000e-03   1.79769313e+307 ) (-3.00010000e+01  1.00000000e-03   1.79769313e+307 ) (-4.00010000e+01  1.00000000e-03   1.79769313e+307 ) (-5.00010000e+01  1.00000000e-03   1.79769313e+307 ) 
0.0553287       (-1.00010000e+01  1.00000000e-03   1.79769313e+307 ) (-2.00010000e+01  1.00000000e-03   1.79769313e+307 ) (-3.00010000e+01  1.00000000e-03   1.79769313e+307 ) (-4.00010000e+01  1.00000000e-03   1.79769313e+307 ) (-5.00010000e+01  1.00000000e-03   1.79769313e+307 ) 
0.05591648      (-1.00010000e+01  1.00000000e-03   1.79769313e+307 ) (-2.00010000e+01  1.00000000e-03   1.79769313e+307 ) (-3.00010000e+01  1.00000000e-03   1.79769313e+307 ) (-4.00010000e+01  1.00000000e-03   1.79769313e+307 ) (-5.00010000e+01  1.00000000e-03   1.79769313e+307 ) 
0.05649652      (-1.00010000e+01  1.00000000e-03   1.79769313e+307 ) (-2.00010000e+01  1.00000000e-03   1.79769313e+307 ) (-3.00010000e+01  1.00000000e-03   1.79769313e+307 ) (-4.00010000e+01  1.00000000e-03   1.79769313e+307 ) (-5.00010000e+01  1.00000000e-03   1.79769313e+307 ) 
0.05708441      (-1.00010000e+01  1.00000000e-03   1.79769313e+307 ) (-2.00010000e+01  1.00000000e-03   1.79769313e+307 ) (-3.00010000e+01  1.00000000e-03   1.79769313e+307 ) (-4.00010000e+01  1.00000000e-03   1.79769313e+307 ) (-5.00010000e+01  1.00000000e-03   1.79769313e+307 ) 
0.05766435      (-1.00010000e+01  1.00000000e-03   1.79769313e+307 ) (-2.00010000e+01  1.00000000e-03   1.79769313e+307 ) (-3.00010000e+01  1.00000000e-03   1.79769313e+307 ) (-4.00010000e+01  1.00000000e-03   1.79769313e+307 ) (-5.00010000e+01  1.00000000e-03   1.79769313e+307 ) 
0.05827791      (-1.00010000e+01  1.00000000e-03   1.79769313e+307 ) (-2.00010000e+01  1.00000000e-03   1.79769313e+307 ) (-3.00010000e+01  1.00000000e-03   1.79769313e+307 ) (-4.00010000e+01  1.00000000e-03   1.79769313e+307 ) (-5.00010000e+01  1.00000000e-03   1.79769313e+307 ) 
0.05885738      (-1.00010000e+01  1.00000000e-03   1.79769313e+307 ) (-2.00010000e+01  1.00000000e-03   1.79769313e+307 ) (-3.00010000e+01  1.00000000e-03   1.79769313e+307 ) (-4.00010000e+01  1.00000000e-03   1.79769313e+307 ) (-5.00010000e+01  1.00000000e-03   1.79769313e+307 ) 
0.05949034      (-1.00010000e+01  1.00000000e-03   1.79769313e+307 ) (-2.00010000e+01  1.00000000e-03   1.79769313e+307 ) (-3.00010000e+01  1.00000000e-03   1.79769313e+307 ) (-4.00010000e+01  1.00000000e-03   1.79769313e+307 ) (-5.00010000e+01  1.00000000e-03   1.79769313e+307 ) 
0.06010413      (-1.00010000e+01  1.00000000e-03   1.79769313e+307 ) (-2.00010000e+01  1.00000000e-03   1.79769313e+307 ) (-3.00010000e+01  1.00000000e-03   1.79769313e+307 ) (-4.00010000e+01  1.00000000e-03   1.79769313e+307 ) (-5.00010000e+01  1.00000000e-03   1.79769313e+307 ) 
0.06074761      (-1.00010000e+01  1.00000000e-03   1.79769313e+307 ) (-2.00010000e+01  1.00000000e-03   1.79769313e+307 ) (-3.00010000e+01  1.00000000e-03   1.79769313e+307 ) (-4.00010000e+01  1.00000000e-03   1.79769313e+307 ) (-5.00010000e+01  1.00000000e-03   1.79769313e+307 ) 
0.06137066      (-1.00010000e+01  1.00000000e-03   1.79769313e+307 ) (-2.00010000e+01  1.00000000e-03   1.79769313e+307 ) (-3.00010000e+01  1.00000000e-03   1.79769313e+307 ) (-4.00010000e+01  1.00000000e-03   1.79769313e+307 ) (-5.00010000e+01  1.00000000e-03   1.79769313e+307 ) 
0.0620254       (-1.00010000e+01  1.00000000e-03   1.79769313e+307 ) (-2.00010000e+01  1.00000000e-03   1.79769313e+307 ) (-3.00010000e+01  1.00000000e-03   1.79769313e+307 ) (-4.00010000e+01  1.00000000e-03   1.79769313e+307 ) (-5.00010000e+01  1.00000000e-03   1.79769313e+307 ) 
0.06265831      (-1.00010000e+01  1.00000000e-03   1.79769313e+307 ) (-2.00010000e+01  1.00000000e-03   1.79769313e+307 ) (-3.00010000e+01  1.00000000e-03   1.79769313e+307 ) (-4.00010000e+01  1.00000000e-03   1.79769313e+307 ) (-5.00010000e+01  1.00000000e-03   1.79769313e+307 ) 
0.06333725      (-1.00010000e+01  1.00000000e-03   1.79769313e+307 ) (-2.00010000e+01  1.00000000e-03   1.79769313e+307 ) (-3.00010000e+01  1.00000000e-03   1.79769313e+307 ) (-4.00010000e+01  1.00000000e-03   1.79769313e+307 ) (-5.00010000e+01  1.00000000e-03   1.79769313e+307 ) 
0.06398045      (-1.00010000e+01  1.00000000e-03   1.79769313e+307 ) (-2.00010000e+01  1.00000000e-03   1.79769313e+307 ) (-3.00010000e+01  1.00000000e-03   1.79769313e+307 ) (-4.00010000e+01  1.00000000e-03   1.79769313e+307 ) (-5.00010000e+01  1.00000000e-03   1.79769313e+307 ) 