# Location 0    : (-1.00010000e+01 1.00000000e-03 -5.00100000e+00)
# Location 1    : (-2.00010000e+01 1.00000000e-03 -5.00100000e+00)
# Location 2    : (-3.00010000e+01 1.00000000e-03 -5.00100000e+00)
# Location 3    : (-4.00010000e+01 1.00000000e-03 -5.00100000e+00)
# Location 4    : (-5.00010000e+01 1.00000000e-03 -5.00100000e+00)
# hB            : Interface height above the boundary
# hL            : Interface height above the location
# Location      0                                 1                                 2                                 3                                 4                                 
# Time          hB               hL               hB               hL               hB               hL               hB               hL               hB               hL               
0               0.00000000e+00   1.79769313e+307  0.00000000e+00   1.79769313e+307  0.00000000e+00   1.79769313e+307  0.00000000e+00   1.79769313e+307  0.00000000e+00   1.79769313e+307  
0.001190476     0.00000000e+00   1.79769313e+307  0.00000000e+00   1.79769313e+307  0.00000000e+00   1.79769313e+307  0.00000000e+00   1.79769313e+307  0.00000000e+00   1.79769313e+307  
0.001607394     0.00000000e+00   1.79769313e+307  0.00000000e+00   1.79769313e+307  0.00000000e+00   1.79769313e+307  0.00000000e+00   1.79769313e+307  0.00000000e+00   1.79769313e+307  
0.00207371      0.00000000e+00   1.79769313e+307  0.00000000e+00   1.79769313e+307  0.00000000e+00   1.79769313e+307  0.00000000e+00   1.79769313e+307  0.00000000e+00   1.79769313e+307  
0.002594594     0.00000000e+00   1.79769313e+307  0.00000000e+00   1.79769313e+307  0.00000000e+00   1.79769313e+307  0.00000000e+00   1.79769313e+307  0.00000000e+00   1.79769313e+307  
0.003174388     0.00000000e+00   1.79769313e+307  0.00000000e+00   1.79769313e+307  0.00000000e+00   1.79769313e+307  0.00000000e+00   1.79769313e+307  0.00000000e+00   1.79769313e+307  
0.003783354     0.00000000e+00   1.79769313e+307  0.00000000e+00   1.79769313e+307  0.00000000e+00   1.79769313e+307  0.00000000e+00   1.79769313e+307  0.00000000e+00   1.79769313e+307  
0.004416359     0.00000000e+00   1.79769313e+307  0.00000000e+00   1.79769313e+307  0.00000000e+00   1.79769313e+307  0.00000000e+00   1.79769313e+307  0.00000000e+00   1.79769313e+307  
0.005002761     0.00000000e+00   1.79769313e+307  0.00000000e+00   1.79769313e+307  0.00000000e+00   1.79769313e+307  0.00000000e+00   1.79769313e+307  0.00000000e+00   1.79769313e+307  
0.005450862     0.00000000e+00   1.79769313e+307  0.00000000e+00   1.79769313e+307  0.00000000e+00   1.79769313e+307  0.00000000e+00   1.79769313e+307  0.00000000e+00   1.79769313e+307  
0.005781453     0.00000000e+00   1.79769313e+307  0.00000000e+00   1.79769313e+307  0.00000000e+00   1.79769313e+307  0.00000000e+00   1.79769313e+307  0.00000000e+00   1.79769313e+307  
0.00602366      0.00000000e+00   1.79769313e+307  0.00000000e+00   1.79769313e+307  0.00000000e+00   1.79769313e+307  0.00000000e+00   1.79769313e+307  0.00000000e+00   1.79769313e+307  
0.006224036     0.00000000e+00   1.79769313e+307  0.00000000e+00   1.79769313e+307  0.00000000e+00   1.79769313e+307  0.00000000e+00   1.79769313e+307  0.00000000e+00   1.79769313e+307  
0.006411214     0.00000000e+00   1.79769313e+307  0.00000000e+00   1.79769313e+307  0.00000000e+00   1.79769313e+307  0.00000000e+00   1.79769313e+307  0.00000000e+00   1.79769313e+307  
0.006572296     0.00000000e+00   1.79769313e+307  0.00000000e+00   1.79769313e+307  0.00000000e+00   1.79769313e+307  0.00000000e+00   1.79769313e+307  0.00000000e+00   1.79769313e+307  
0.006694264     0.00000000e+00   1.79769313e+307  0.00000000e+00   1.79769313e+307  0.00000000e+00   1.79769313e+307  0.00000000e+00   1.79769313e+307  0.00000000e+00   1.79769313e+307  
0.006802257     0.00000000e+00   1.79769313e+307  0.00000000e+00   1.79769313e+307  0.00000000e+00   1.79769313e+307  0.00000000e+00   1.79769313e+307  0.00000000e+00   1.79769313e+307  
0.006917316     0.00000000e+00   1.79769313e+307  0.00000000e+00   1.79769313e+307  0.00000000e+00   1.79769313e+307  0.00000000e+00   1.79769313e+307  0.00000000e+00   1.79769313e+307  
0.007045001     0.00000000e+00   1.79769313e+307  0.00000000e+00   1.79769313e+307  0.00000000e+00   1.79769313e+307  0.00000000e+00   1.79769313e+307  0.00000000e+00   1.79769313e+307  
0.007186917     0.00000000e+00   1.79769313e+307  0.00000000e+00   1.79769313e+307  0.00000000e+00   1.79769313e+307  0.00000000e+00   1.79769313e+307  0.00000000e+00   1.79769313e+307  
0.007344495     0.00000000e+00   1.79769313e+307  0.00000000e+00   1.79769313e+307  0.00000000e+00   1.79769313e+307  0.00000000e+00   1.79769313e+307  0.00000000e+00   1.79769313e+307  
0.007517037     0.00000000e+00   1.79769313e+307  0.00000000e+00   1.79769313e+307  0.00000000e+00   1.79769313e+307  0.00000000e+00   1.79769313e+307  0.00000000e+00   1.79769313e+307  
0.007706552     0.00000000e+00   1.79769313e+307  0.00000000e+00   1.79769313e+307  0.00000000e+00   1.79769313e+307  0.00000000e+00   1.79769313e+307  0.00000000e+00   1.79769313e+307  
0.007902089     0.00000000e+00   1.79769313e+307  0.00000000e+00   1.79769313e+307  0.00000000e+00   1.79769313e+307  0.00000000e+00   1.79769313e+307  0.00000000e+00   1.79769313e+307  
0.008096799     0.00000000e+00   1.79769313e+307  0.00000000e+00   1.79769313e+307  0.00000000e+00   1.79769313e+307  0.00000000e+00   1.79769313e+307  0.00000000e+00   1.79769313e+307  
0.00828629      0.00000000e+00   1.79769313e+307  0.00000000e+00   1.79769313e+307  0.00000000e+00   1.79769313e+307  0.00000000e+00   1.79769313e+307  0.00000000e+00   1.79769313e+307  
0.008483949     0.00000000e+00   1.79769313e+307  0.00000000e+00   1.79769313e+307  0.00000000e+00   1.79769313e+307  0.00000000e+00   1.79769313e+307  0.00000000e+00   1.79769313e+307  
0.008695302     0.00000000e+00   1.79769313e+307  0.00000000e+00   1.79769313e+307  0.00000000e+00   1.79769313e+307  0.00000000e+00   1.79769313e+307  0.00000000e+00   1.79769313e+307  
0.008930019     0.00000000e+00   1.79769313e+307  0.00000000e+00   1.79769313e+307  0.00000000e+00   1.79769313e+307  0.00000000e+00   1.79769313e+307  0.00000000e+00   1.79769313e+307  
0.009162934     0.00000000e+00   1.79769313e+307  0.00000000e+00   1.79769313e+307  0.00000000e+00   1.79769313e+307  0.00000000e+00   1.79769313e+307  0.00000000e+00   1.79769313e+307  
0.009409105     0.00000000e+00   1.79769313e+307  0.00000000e+00   1.79769313e+307  0.00000000e+00   1.79769313e+307  0.00000000e+00   1.79769313e+307  0.00000000e+00   1.79769313e+307  
0.009653946     0.00000000e+00   1.79769313e+307  0.00000000e+00   1.79769313e+307  0.00000000e+00   1.79769313e+307  0.00000000e+00   1.79769313e+307  0.00000000e+00   1.79769313e+307  
0.009922833     0.00000000e+00   1.79769313e+307  0.00000000e+00   1.79769313e+307  0.00000000e+00   1.79769313e+307  0.00000000e+00   1.79769313e+307  0.00000000e+00   1.79769313e+307  
0.01020699      0.00000000e+00   1.79769313e+307  0.00000000e+00   1.79769313e+307  0.00000000e+00   1.79769313e+307  0.00000000e+00   1.79769313e+307  0.00000000e+00   1.79769313e+307  
0.01049852      0.00000000e+00   1.79769313e+307  0.00000000e+00   1.79769313e+307  0.00000000e+00   1.79769313e+307  0.00000000e+00   1.79769313e+307  0.00000000e+00   1.79769313e+307  
0.01082517      0.00000000e+00   1.79769313e+307  0.00000000e+00   1.79769313e+307  0.00000000e+00   1.79769313e+307  0.00000000e+00   1.79769313e+307  0.00000000e+00   1.79769313e+307  
0.01113807      0.00000000e+00   1.79769313e+307  0.00000000e+00   1.79769313e+307  0.00000000e+00   1.79769313e+307  0.00000000e+00   1.79769313e+307  0.00000000e+00   1.79769313e+307  
0.01148792      0.00000000e+00   1.79769313e+307  0.00000000e+00   1.79769313e+307  0.00000000e+00   1.79769313e+307  0.00000000e+00   1.79769313e+307  0.00000000e+00   1.79769313e+307  
0.01187956      0.00000000e+00   1.79769313e+307  0.00000000e+00   1.79769313e+307  0.00000000e+00   1.79769313e+307  0.00000000e+00   1.79769313e+307  0.00000000e+00   1.79769313e+307  
0.01231797      0.00000000e+00   1.79769313e+307  0.00000000e+00   1.79769313e+307  0.00000000e+00   1.79769313e+307  0.00000000e+00   1.79769313e+307  0.00000000e+00   1.79769313e+307  
0.01280509      0.00000000e+00   1.79769313e+307  0.00000000e+00   1.79769313e+307  0.00000000e+00   1.79769313e+307  0.00000000e+00   1.79769313e+307  0.00000000e+00   1.79769313e+307  
0.01335006      0.00000000e+00   1.79769313e+307  0.00000000e+00   1.79769313e+307  0.00000000e+00   1.79769313e+307  0.00000000e+00   1.79769313e+307  0.00000000e+00   1.79769313e+307  
0.01395601      0.00000000e+00   1.79769313e+307  0.00000000e+00   1.79769313e+307  0.00000000e+00   1.79769313e+307  0.00000000e+00   1.79769313e+307  0.00000000e+00   1.79769313e+307  
0.01462822      0.00000000e+00   1.79769313e+307  0.00000000e+00   1.79769313e+307  0.00000000e+00   1.79769313e+307  0.00000000e+00   1.79769313e+307  0.00000000e+00   1.79769313e+307  
0.01533378      0.00000000e+00   1.79769313e+307  0.00000000e+00   1.79769313e+307  0.00000000e+00   1.79769313e+307  0.00000000e+00   1.79769313e+307  0.00000000e+00   1.79769313e+307  
0.01607         0.00000000e+00   1.79769313e+307  0.00000000e+00   1.79769313e+307  0.00000000e+00   1.79769313e+307  0.00000000e+00   1.79769313e+307  0.00000000e+00   1.79769313e+307  
0.016833        0.00000000e+00   1.79769313e+307  0.00000000e+00   1.79769313e+307  0.00000000e+00   1.79769313e+307  0.00000000e+00   1.79769313e+307  0.00000000e+00   1.79769313e+307  
0.01762507      0.00000000e+00   1.79769313e+307  0.00000000e+00   1.79769313e+307  0.00000000e+00   1.79769313e+307  0.00000000e+00   1.79769313e+307  0.00000000e+00   1.79769313e+307  
0.01844066      0.00000000e+00   1.79769313e+307  0.00000000e+00   1.79769313e+307  0.00000000e+00   1.79769313e+307  0.00000000e+00   1.79769313e+307  0.00000000e+00   1.79769313e+307  
0.01928148      0.00000000e+00   1.79769313e+307  0.00000000e+00   1.79769313e+307  0.00000000e+00   1.79769313e+307  0.00000000e+00   1.79769313e+307  0.00000000e+00   1.79769313e+307  
0.02014942      0.00000000e+00   1.79769313e+307  0.00000000e+00   1.79769313e+307  0.00000000e+00   1.79769313e+307  0.00000000e+00   1.79769313e+307  0.00000000e+00   1.79769313e+307  
0.02104662      0.00000000e+00   1.79769313e+307  0.00000000e+00   1.79769313e+307  0.00000000e+00   1.79769313e+307  0.00000000e+00   1.79769313e+307  0.00000000e+00   1.79769313e+307  
0.02197548      0.00000000e+00   1.79769313e+307  0.00000000e+00   1.79769313e+307  0.00000000e+00   1.79769313e+307  0.00000000e+00   1.79769313e+307  0.00000000e+00   1.79769313e+307  
0.022927        0.00000000e+00   1.79769313e+307  0.00000000e+00   1.79769313e+307  0.00000000e+00   1.79769313e+307  0.00000000e+00   1.79769313e+307  0.00000000e+00   1.79769313e+307  
0.02391512      0.00000000e+00   1.79769313e+307  0.00000000e+00   1.79769313e+307  0.00000000e+00   1.79769313e+307  0.00000000e+00   1.79769313e+307  0.00000000e+00   1.79769313e+307  
0.02492958      0.00000000e+00   1.79769313e+307  0.00000000e+00   1.79769313e+307  0.00000000e+00   1.79769313e+307  0.00000000e+00   1.79769313e+307  0.00000000e+00   1.79769313e+307  
0.02597223      0.00000000e+00   1.79769313e+307  0.00000000e+00   1.79769313e+307  0.00000000e+00   1.79769313e+307  0.00000000e+00   1.79769313e+307  0.00000000e+00   1.79769313e+307  
0.02704509      0.00000000e+00   1.79769313e+307  0.00000000e+00   1.79769313e+307  0.00000000e+00   1.79769313e+307  0.00000000e+00   1.79769313e+307  0.00000000e+00   1.79769313e+307  
0.02815047      0.00000000e+00   1.79769313e+307  0.00000000e+00   1.79769313e+307  0.00000000e+00   1.79769313e+307  0.00000000e+00   1.79769313e+307  0.00000000e+00   1.79769313e+307  
0.02927312      0.00000000e+00   1.79769313e+307  0.00000000e+00   1.79769313e+307  0.00000000e+00   1.79769313e+307  0.00000000e+00   1.79769313e+307  0.00000000e+00   1.79769313e+307  
0.03043258      0.00000000e+00   1.79769313e+307  0.00000000e+00   1.79769313e+307  0.00000000e+00   1.79769313e+307  0.00000000e+00   1.79769313e+307  0.00000000e+00   1.79769313e+307  
0.03159203      0.00000000e+00   1.79769313e+307  0.00000000e+00   1.79769313e+307  0.00000000e+00   1.79769313e+307  0.00000000e+00   1.79769313e+307  0.00000000e+00   1.79769313e+307  
0.03277148      0.00000000e+00   1.79769313e+307  0.00000000e+00   1.79769313e+307  0.00000000e+00   1.79769313e+307  0.00000000e+00   1.79769313e+307  0.00000000e+00   1.79769313e+307  
0.03395093      0.00000000e+00   1.79769313e+307  0.00000000e+00   1.79769313e+307  0.00000000e+00   1.79769313e+307  0.00000000e+00   1.79769313e+307  0.00000000e+00   1.79769313e+307  
0.03513038      0.00000000e+00   1.79769313e+307  0.00000000e+00   1.79769313e+307  0.00000000e+00   1.79769313e+307  0.00000000e+00   1.79769313e+307  0.00000000e+00   1.79769313e+307  
0.03633167      0.00000000e+00   1.79769313e+307  0.00000000e+00   1.79769313e+307  0.00000000e+00   1.79769313e+307  0.00000000e+00   1.79769313e+307  0.00000000e+00   1.79769313e+307  
0.03753296      0.00000000e+00   1.79769313e+307  0.00000000e+00   1.79769313e+307  0.00000000e+00   1.79769313e+307  0.00000000e+00   1.79769313e+307  0.00000000e+00   1.79769313e+307  
0.03873425      0.00000000e+00   1.79769313e+307  0.00000000e+00   1.79769313e+307  0.00000000e+00   1.79769313e+307  0.00000000e+00   1.79769313e+307  0.00000000e+00   1.79769313e+307  
0.03993553      0.00000000e+00   1.79769313e+307  0.00000000e+00   1.79769313e+307  0.00000000e+00   1.79769313e+307  0.00000000e+00   1.79769313e+307  0.00000000e+00   1.79769313e+307  
0.04113682      0.00000000e+00   1.79769313e+307  0.00000000e+00   1.79769313e+307  0.00000000e+00   1.79769313e+307  0.00000000e+00   1.79769313e+307  0.00000000e+00   1.79769313e+307  
0.04233811      0.00000000e+00   1.79769313e+307  0.00000000e+00   1.79769313e+307  0.00000000e+00   1.79769313e+307  0.00000000e+00   1.79769313e+307  0.00000000e+00   1.79769313e+307  
0.0435394       0.00000000e+00   1.79769313e+307  0.00000000e+00   1.79769313e+307  0.00000000e+00   1.79769313e+307  0.00000000e+00   1.79769313e+307  0.00000000e+00   1.79769313e+307  
0.04464647      0.00000000e+00   1.79769313e+307  0.00000000e+00   1.79769313e+307  0.00000000e+00   1.79769313e+307  0.00000000e+00   1.79769313e+307  0.00000000e+00   1.79769313e+307  
0.04561759      0.00000000e+00   1.79769313e+307  0.00000000e+00   1.79769313e+307  0.00000000e+00   1.79769313e+307  0.00000000e+00   1.79769313e+307  0.00000000e+00   1.79769313e+307  
0.0464808       0.00000000e+00   1.79769313e+307  0.00000000e+00   1.79769313e+307  0.00000000e+00   1.79769313e+307  0.00000000e+00   1.79769313e+307  0.00000000e+00   1.79769313e+307  
0.04725644      0.00000000e+00   1.79769313e+307  0.00000000e+00   1.79769313e+307  0.00000000e+00   1.79769313e+307  0.00000000e+00   1.79769313e+307  0.00000000e+00   1.79769313e+307  
0.04797896      0.00000000e+00   1.79769313e+307  0.00000000e+00   1.79769313e+307  0.00000000e+00   1.79769313e+307  0.00000000e+00   1.79769313e+307  0.00000000e+00   1.79769313e+307  
0.04870147      0.00000000e+00   1.79769313e+307  0.00000000e+00   1.79769313e+307  0.00000000e+00   1.79769313e+307  0.00000000e+00   1.79769313e+307  0.00000000e+00   1.79769313e+307  
0.04939469      0.00000000e+00   1.79769313e+307  0.00000000e+00   1.79769313e+307  0.00000000e+00   1.79769313e+307  0.00000000e+00   1.79769313e+307  0.00000000e+00   1.79769313e+307  
0.05007855      0.00000000e+00   1.79769313e+307  0.00000000e+00   1.79769313e+307  0.00000000e+00   1.79769313e+307  0.00000000e+00   1.79769313e+307  0.00000000e+00   1.79769313e+307  
0.05073541      0.00000000e+00   1.79769313e+307  0.00000000e+00   1.79769313e+307  0.00000000e+00   1.79769313e+307  0.00000000e+00   1.79769313e+307  0.00000000e+00   1.79769313e+307  
0.05137521      0.00000000e+00   1.79769313e+307  0.00000000e+00   1.79769313e+307  0.00000000e+00   1.79769313e+307  0.00000000e+00   1.79769313e+307  0.00000000e+00   1.79769313e+307  
0.0520067       0.00000000e+00   1.79769313e+307  0.00000000e+00   1.79769313e+307  0.00000000e+00   1.79769313e+307  0.00000000e+00   1.79769313e+307  0.00000000e+00   1.79769313e+307  
0.05262999      0.00000000e+00   1.79769313e+307  0.00000000e+00   1.79769313e+307  0.00000000e+00   1.79769313e+307  0.00000000e+00   1.79769313e+307  0.00000000e+00   1.79769313e+307  
0.0532373       0.00000000e+00   1.79769313e+307  0.00000000e+00   1.79769313e+307  0.00000000e+00   1.79769313e+307  0.00000000e+00   1.79769313e+307  0.00000000e+00   1.79769313e+307  
0.05383682      0.00000000e+00   1.79769313e+307  0.00000000e+00   1.79769313e+307  0.00000000e+00   1.79769313e+307  0.00000000e+00   1.79769313e+307  0.00000000e+00   1.79769313e+307  
0.05442866      0.00000000e+00   1.79769313e+307  0.00000000e+00   1.79769313e+307  0.00000000e+00   1.79769313e+307  0.00000000e+00   1.79769313e+307  0.00000000e+00   1.79769313e+307  
0.05502049      0.00000000e+00   1.79769313e+307  0.00000000e+00   1.79769313e+307  0.00000000e+00   1.79769313e+307  0.00000000e+00   1.79769313e+307  0.00000000e+00   1.79769313e+307  
0.05560464      0.00000000e+00   1.79769313e+307  0.00000000e+00   1.79769313e+307  0.00000000e+00   1.79769313e+307  0.00000000e+00   1.79769313e+307  0.00000000e+00   1.79769313e+307  
0.0561812       0.00000000e+00   1.79769313e+307  0.00000000e+00   1.79769313e+307  0.00000000e+00   1.79769313e+307  0.00000000e+00   1.79769313e+307  0.00000000e+00   1.79769313e+307  
0.05676545      0.00000000e+00   1.79769313e+307  0.00000000e+00   1.79769313e+307  0.00000000e+00   1.79769313e+307  0.00000000e+00   1.79769313e+307  0.00000000e+00   1.79769313e+307  
0.05733433      0.00000000e+00   1.79769313e+307  0.00000000e+00   1.79769313e+307  0.00000000e+00   1.79769313e+307  0.00000000e+00   1.79769313e+307  0.00000000e+00   1.79769313e+307  
0.05794384      0.00000000e+00   1.79769313e+307  0.00000000e+00   1.79769313e+307  0.00000000e+00   1.79769313e+307  0.00000000e+00   1.79769313e+307  0.00000000e+00   1.79769313e+307  
0.05851995      0.00000000e+00   1.79769313e+307  0.00000000e+00   1.79769313e+307  0.00000000e+00   1.79769313e+307  0.00000000e+00   1.79769313e+307  0.00000000e+00   1.79769313e+307  
0.05914844      0.00000000e+00   1.79769313e+307  0.00000000e+00   1.79769313e+307  0.00000000e+00   1.79769313e+307  0.00000000e+00   1.79769313e+307  0.00000000e+00   1.79769313e+307  
0.0597492       0.00000000e+00   1.79769313e+307  0.00000000e+00   1.79769313e+307  0.00000000e+00   1.79769313e+307  0.00000000e+00   1.79769313e+307  0.00000000e+00   1.79769313e+307  
0.0603881       0.00000000e+00   1.79769313e+307  0.00000000e+00   1.79769313e+307  0.00000000e+00   1.79769313e+307  0.00000000e+00   1.79769313e+307  0.00000000e+00   1.79769313e+307  
0.06100703      0.00000000e+00   1.79769313e+307  0.00000000e+00   1.79769313e+307  0.00000000e+00   1.79769313e+307  0.00000000e+00   1.79769313e+307  0.00000000e+00   1.79769313e+307  
0.06165692      0.00000000e+00   1.79769313e+307  0.00000000e+00   1.79769313e+307  0.00000000e+00   1.79769313e+307  0.00000000e+00   1.79769313e+307  0.00000000e+00   1.79769313e+307  
0.06228549      0.00000000e+00   1.79769313e+307  0.00000000e+00   1.79769313e+307  0.00000000e+00   1.79769313e+307  0.00000000e+00   1.79769313e+307  0.00000000e+00   1.79769313e+307  
0.06295896      0.00000000e+00   1.79769313e+307  0.00000000e+00   1.79769313e+307  0.00000000e+00   1.79769313e+307  0.00000000e+00   1.79769313e+307  0.00000000e+00   1.79769313e+307  
0.0635976       0.00000000e+00   1.79769313e+307  0.00000000e+00   1.79769313e+307  0.00000000e+00   1.79769313e+307  0.00000000e+00   1.79769313e+307  0.00000000e+00   1.79769313e+307  
0.06429765      0.00000000e+00   1.79769313e+307  0.00000000e+00   1.79769313e+307  0.00000000e+00   1.79769313e+307  0.00000000e+00   1.79769313e+307  0.00000000e+00   1.79769313e+307  
0.0649588       0.00000000e+00   1.79769313e+307  0.00000000e+00   1.79769313e+307  0.00000000e+00   1.79769313e+307  0.00000000e+00   1.79769313e+307  0.00000000e+00   1.79769313e+307  
0.06568883      0.00000000e+00   1.79769313e+307  0.00000000e+00   1.79769313e+307  0.00000000e+00   1.79769313e+307  0.00000000e+00   1.79769313e+307  0.00000000e+00   1.79769313e+307  
0.0663616       0.00000000e+00   1.79769313e+307  0.00000000e+00   1.79769313e+307  0.00000000e+00   1.79769313e+307  0.00000000e+00   1.79769313e+307  0.00000000e+00   1.79769313e+307  
0.06710912      0.00000000e+00   1.79769313e+307  0.00000000e+00   1.79769313e+307  0.00000000e+00   1.79769313e+307  0.00000000e+00   1.79769313e+307  0.00000000e+00   1.79769313e+307  
0.06778036      0.00000000e+00   1.79769313e+307  0.00000000e+00   1.79769313e+307  0.00000000e+00   1.79769313e+307  0.00000000e+00   1.79769313e+307  0.00000000e+00   1.79769313e+307  
0.06851262      0.00000000e+00   1.79769313e+307  0.00000000e+00   1.79769313e+307  0.00000000e+00   1.79769313e+307  0.00000000e+00   1.79769313e+307  0.00000000e+00   1.79769313e+307  
0.06919713      0.00000000e+00   1.79769313e+307  0.00000000e+00   1.79769313e+307  0.00000000e+00   1.79769313e+307  0.00000000e+00   1.79769313e+307  0.00000000e+00   1.79769313e+307  
0.06994842      0.00000000e+00   1.79769313e+307  0.00000000e+00   1.79769313e+307  0.00000000e+00   1.79769313e+307  0.00000000e+00   1.79769313e+307  0.00000000e+00   1.79769313e+307  
0.0706473       0.00000000e+00   1.79769313e+307  0.00000000e+00   1.79769313e+307  0.00000000e+00   1.79769313e+307  0.00000000e+00   1.79769313e+307  0.00000000e+00   1.79769313e+307  
0.07141973      0.00000000e+00   1.79769313e+307  0.00000000e+00   1.79769313e+307  0.00000000e+00   1.79769313e+307  0.00000000e+00   1.79769313e+307  0.00000000e+00   1.79769313e+307  
0.07211681      0.00000000e+00   1.79769313e+307  0.00000000e+00   1.79769313e+307  0.00000000e+00   1.79769313e+307  0.00000000e+00   1.79769313e+307  0.00000000e+00   1.79769313e+307  
0.07289135      0.00000000e+00   1.79769313e+307  0.00000000e+00   1.79769313e+307  0.00000000e+00   1.79769313e+307  0.00000000e+00   1.79769313e+307  0.00000000e+00   1.79769313e+307  
0.07360473      0.00000000e+00   1.79769313e+307  0.00000000e+00   1.79769313e+307  0.00000000e+00   1.79769313e+307  0.00000000e+00   1.79769313e+307  0.00000000e+00   1.79769313e+307  
0.07438106      0.00000000e+00   1.79769313e+307  0.00000000e+00   1.79769313e+307  0.00000000e+00   1.79769313e+307  0.00000000e+00   1.79769313e+307  0.00000000e+00   1.79769313e+307  
0.0750927       0.00000000e+00   1.79769313e+307  0.00000000e+00   1.79769313e+307  0.00000000e+00   1.79769313e+307  0.00000000e+00   1.79769313e+307  0.00000000e+00   1.79769313e+307  
0.07587105      0.00000000e+00   1.79769313e+307  0.00000000e+00   1.79769313e+307  0.00000000e+00   1.79769313e+307  0.00000000e+00   1.79769313e+307  0.00000000e+00   1.79769313e+307  
0.07660223      0.00000000e+00   1.79769313e+307  0.00000000e+00   1.79769313e+307  0.00000000e+00   1.79769313e+307  0.00000000e+00   1.79769313e+307  0.00000000e+00   1.79769313e+307  
0.07740905      0.00000000e+00   1.79769313e+307  0.00000000e+00   1.79769313e+307  0.00000000e+00   1.79769313e+307  0.00000000e+00   1.79769313e+307  0.00000000e+00   1.79769313e+307  
0.07813779      0.00000000e+00   1.79769313e+307  0.00000000e+00   1.79769313e+307  0.00000000e+00   1.79769313e+307  0.00000000e+00   1.79769313e+307  0.00000000e+00   1.79769313e+307  
0.07894751      0.00000000e+00   1.79769313e+307  0.00000000e+00   1.79769313e+307  0.00000000e+00   1.79769313e+307  0.00000000e+00   1.79769313e+307  0.00000000e+00   1.79769313e+307  
0.07967345      0.00000000e+00   1.79769313e+307  0.00000000e+00   1.79769313e+307  0.00000000e+00   1.79769313e+307  0.00000000e+00   1.79769313e+307  0.00000000e+00   1.79769313e+307  
0.08045524      0.00000000e+00   1.79769313e+307  0.00000000e+00   1.79769313e+307  0.00000000e+00   1.79769313e+307  0.00000000e+00   1.79769313e+307  0.00000000e+00   1.79769313e+307  
0.08120697      0.00000000e+00   1.79769313e+307  0.00000000e+00   1.79769313e+307  0.00000000e+00   1.79769313e+307  0.00000000e+00   1.79769313e+307  0.00000000e+00   1.79769313e+307  
0.08202405      0.00000000e+00   1.79769313e+307  0.00000000e+00   1.79769313e+307  0.00000000e+00   1.79769313e+307  0.00000000e+00   1.79769313e+307  0.00000000e+00   1.79769313e+307  
0.08277305      0.00000000e+00   1.79769313e+307  0.00000000e+00   1.79769313e+307  0.00000000e+00   1.79769313e+307  0.00000000e+00   1.79769313e+307  0.00000000e+00   1.79769313e+307  
0.08359338      0.00000000e+00   1.79769313e+307  0.00000000e+00   1.79769313e+307  0.00000000e+00   1.79769313e+307  0.00000000e+00   1.79769313e+307  0.00000000e+00   1.79769313e+307  
0.08433914      0.00000000e+00   1.79769313e+307  0.00000000e+00   1.79769313e+307  0.00000000e+00   1.79769313e+307  0.00000000e+00   1.79769313e+307  0.00000000e+00   1.79769313e+307  
0.08516339      0.00000000e+00   1.79769313e+307  0.00000000e+00   1.79769313e+307  0.00000000e+00   1.79769313e+307  0.00000000e+00   1.79769313e+307  0.00000000e+00   1.79769313e+307  
0.08590522      0.00000000e+00   1.79769313e+307  0.00000000e+00   1.79769313e+307  0.00000000e+00   1.79769313e+307  0.00000000e+00   1.79769313e+307  0.00000000e+00   1.79769313e+307  
0.08668827      0.00000000e+00   1.79769313e+307  0.00000000e+00   1.79769313e+307  0.00000000e+00   1.79769313e+307  0.00000000e+00   1.79769313e+307  0.00000000e+00   1.79769313e+307  
0.08747131      0.00000000e+00   1.79769313e+307  0.00000000e+00   1.79769313e+307  0.00000000e+00   1.79769313e+307  0.00000000e+00   1.79769313e+307  0.00000000e+00   1.79769313e+307  
0.08830656      0.00000000e+00   1.79769313e+307  0.00000000e+00   1.79769313e+307  0.00000000e+00   1.79769313e+307  0.00000000e+00   1.79769313e+307  0.00000000e+00   1.79769313e+307  
0.08908612      0.00000000e+00   1.79769313e+307  0.00000000e+00   1.79769313e+307  0.00000000e+00   1.79769313e+307  0.00000000e+00   1.79769313e+307  0.00000000e+00   1.79769313e+307  
0.08992565      0.00000000e+00   1.79769313e+307  0.00000000e+00   1.79769313e+307  0.00000000e+00   1.79769313e+307  0.00000000e+00   1.79769313e+307  0.00000000e+00   1.79769313e+307  
0.0907006       0.00000000e+00   1.79769313e+307  0.00000000e+00   1.79769313e+307  0.00000000e+00   1.79769313e+307  0.00000000e+00   1.79769313e+307  0.00000000e+00   1.79769313e+307  
0.091546        0.00000000e+00   1.79769313e+307  0.00000000e+00   1.79769313e+307  0.00000000e+00   1.79769313e+307  0.00000000e+00   1.79769313e+307  0.00000000e+00   1.79769313e+307  
0.09231454      0.00000000e+00   1.79769313e+307  0.00000000e+00   1.79769313e+307  0.00000000e+00   1.79769313e+307  0.00000000e+00   1.79769313e+307  0.00000000e+00   1.79769313e+307  
0.09316848      0.00000000e+00   1.79769313e+307  0.00000000e+00   1.79769313e+307  0.00000000e+00   1.79769313e+307  0.00000000e+00   1.79769313e+307  0.00000000e+00   1.79769313e+307  
0.09392754      0.00000000e+00   1.79769313e+307  0.00000000e+00   1.79769313e+307  0.00000000e+00   1.79769313e+307  0.00000000e+00   1.79769313e+307  0.00000000e+00   1.79769313e+307  
0.0946866       0.00000000e+00   1.79769313e+307  0.00000000e+00   1.79769313e+307  0.00000000e+00   1.79769313e+307  0.00000000e+00   1.79769313e+307  0.00000000e+00   1.79769313e+307  
0.09544566      0.00000000e+00   1.79769313e+307  0.00000000e+00   1.79769313e+307  0.00000000e+00   1.79769313e+307  0.00000000e+00   1.79769313e+307  0.00000000e+00   1.79769313e+307  
0.09620471      0.00000000e+00   1.79769313e+307  0.00000000e+00   1.79769313e+307  0.00000000e+00   1.79769313e+307  0.00000000e+00   1.79769313e+307  0.00000000e+00   1.79769313e+307  
0.09696377      0.00000000e+00   1.79769313e+307  0.00000000e+00   1.79769313e+307  0.00000000e+00   1.79769313e+307  0.00000000e+00   1.79769313e+307  0.00000000e+00   1.79769313e+307  
0.09772283      0.00000000e+00   1.79769313e+307  0.00000000e+00   1.79769313e+307  0.00000000e+00   1.79769313e+307  0.00000000e+00   1.79769313e+307  0.00000000e+00   1.79769313e+307  
0.09848189      0.00000000e+00   1.79769313e+307  0.00000000e+00   1.79769313e+307  0.00000000e+00   1.79769313e+307  0.00000000e+00   1.79769313e+307  0.00000000e+00   1.79769313e+307  
0.09924094      0.00000000e+00   1.79769313e+307  0.00000000e+00   1.79769313e+307  0.00000000e+00   1.79769313e+307  0.00000000e+00   1.79769313e+307  0.00000000e+00   1.79769313e+307  
0.1             0.00000000e+00   1.79769313e+307  0.00000000e+00   1.79769313e+307  0.00000000e+00   1.79769313e+307  0.00000000e+00   1.79769313e+307  0.00000000e+00   1.79769313e+307  
0.1008475       0.00000000e+00   1.79769313e+307  0.00000000e+00   1.79769313e+307  0.00000000e+00   1.79769313e+307  0.00000000e+00   1.79769313e+307  0.00000000e+00   1.79769313e+307  
0.1016737       0.00000000e+00   1.79769313e+307  0.00000000e+00   1.79769313e+307  0.00000000e+00   1.79769313e+307  0.00000000e+00   1.79769313e+307  0.00000000e+00   1.79769313e+307  
0.1025842       0.00000000e+00   1.79769313e+307  0.00000000e+00   1.79769313e+307  0.00000000e+00   1.79769313e+307  0.00000000e+00   1.79769313e+307  0.00000000e+00   1.79769313e+307  
0.1034168       0.00000000e+00   1.79769313e+307  0.00000000e+00   1.79769313e+307  0.00000000e+00   1.79769313e+307  0.00000000e+00   1.79769313e+307  0.00000000e+00   1.79769313e+307  
0.1043366       0.00000000e+00   1.79769313e+307  0.00000000e+00   1.79769313e+307  0.00000000e+00   1.79769313e+307  0.00000000e+00   1.79769313e+307  0.00000000e+00   1.79769313e+307  
0.1051758       0.00000000e+00   1.79769313e+307  0.00000000e+00   1.79769313e+307  0.00000000e+00   1.79769313e+307  0.00000000e+00   1.79769313e+307  0.00000000e+00   1.79769313e+307  