# Location 0    : (-1.00010000e+01 1.00000000e-03 -5.00100000e+00)
# Location 1    : (-2.00010000e+01 1.00000000e-03 -5.00100000e+00)
# Location 2    : (-3.00010000e+01 1.00000000e-03 -5.00100000e+00)
# Location 3    : (-4.00010000e+01 1.00000000e-03 -5.00100000e+00)
# Location 4    : (-5.00010000e+01 1.00000000e-03 -5.00100000e+00)
# hB            : Interface height above the boundary
# hL            : Interface height above the location
# Location      0                                 1                                 2                                 3                                 4                                 
# Time          hB               hL               hB               hL               hB               hL               hB               hL               hB               hL               
32.3            0.00000000e+00   1.79769313e+307  0.00000000e+00   1.79769313e+307  0.00000000e+00   1.79769313e+307  0.00000000e+00   1.79769313e+307  0.00000000e+00   1.79769313e+307  
32.31111        0.00000000e+00   1.79769313e+307  0.00000000e+00   1.79769313e+307  0.00000000e+00   1.79769313e+307  0.00000000e+00   1.79769313e+307  0.00000000e+00   1.79769313e+307  
32.32222        0.00000000e+00   1.79769313e+307  0.00000000e+00   1.79769313e+307  0.00000000e+00   1.79769313e+307  0.00000000e+00   1.79769313e+307  0.00000000e+00   1.79769313e+307  
32.33333        0.00000000e+00   1.79769313e+307  0.00000000e+00   1.79769313e+307  0.00000000e+00   1.79769313e+307  0.00000000e+00   1.79769313e+307  0.00000000e+00   1.79769313e+307  
32.34444        0.00000000e+00   1.79769313e+307  0.00000000e+00   1.79769313e+307  0.00000000e+00   1.79769313e+307  0.00000000e+00   1.79769313e+307  0.00000000e+00   1.79769313e+307  
32.35556        0.00000000e+00   1.79769313e+307  0.00000000e+00   1.79769313e+307  0.00000000e+00   1.79769313e+307  0.00000000e+00   1.79769313e+307  0.00000000e+00   1.79769313e+307  
32.36667        0.00000000e+00   1.79769313e+307  0.00000000e+00   1.79769313e+307  0.00000000e+00   1.79769313e+307  0.00000000e+00   1.79769313e+307  0.00000000e+00   1.79769313e+307  
32.37778        0.00000000e+00   1.79769313e+307  0.00000000e+00   1.79769313e+307  0.00000000e+00   1.79769313e+307  0.00000000e+00   1.79769313e+307  0.00000000e+00   1.79769313e+307  
32.38889        0.00000000e+00   1.79769313e+307  0.00000000e+00   1.79769313e+307  0.00000000e+00   1.79769313e+307  0.00000000e+00   1.79769313e+307  0.00000000e+00   1.79769313e+307  
32.4            0.00000000e+00   1.79769313e+307  0.00000000e+00   1.79769313e+307  0.00000000e+00   1.79769313e+307  0.00000000e+00   1.79769313e+307  0.00000000e+00   1.79769313e+307  
32.41111        0.00000000e+00   1.79769313e+307  0.00000000e+00   1.79769313e+307  0.00000000e+00   1.79769313e+307  0.00000000e+00   1.79769313e+307  0.00000000e+00   1.79769313e+307  
32.42222        0.00000000e+00   1.79769313e+307  0.00000000e+00   1.79769313e+307  0.00000000e+00   1.79769313e+307  0.00000000e+00   1.79769313e+307  0.00000000e+00   1.79769313e+307  
32.43333        0.00000000e+00   1.79769313e+307  0.00000000e+00   1.79769313e+307  0.00000000e+00   1.79769313e+307  0.00000000e+00   1.79769313e+307  0.00000000e+00   1.79769313e+307  
32.44444        0.00000000e+00   1.79769313e+307  0.00000000e+00   1.79769313e+307  0.00000000e+00   1.79769313e+307  0.00000000e+00   1.79769313e+307  0.00000000e+00   1.79769313e+307  
32.45556        0.00000000e+00   1.79769313e+307  0.00000000e+00   1.79769313e+307  0.00000000e+00   1.79769313e+307  0.00000000e+00   1.79769313e+307  0.00000000e+00   1.79769313e+307  
32.46667        0.00000000e+00   1.79769313e+307  0.00000000e+00   1.79769313e+307  0.00000000e+00   1.79769313e+307  0.00000000e+00   1.79769313e+307  0.00000000e+00   1.79769313e+307  
32.47778        0.00000000e+00   1.79769313e+307  0.00000000e+00   1.79769313e+307  0.00000000e+00   1.79769313e+307  0.00000000e+00   1.79769313e+307  0.00000000e+00   1.79769313e+307  
32.48889        0.00000000e+00   1.79769313e+307  0.00000000e+00   1.79769313e+307  0.00000000e+00   1.79769313e+307  0.00000000e+00   1.79769313e+307  0.00000000e+00   1.79769313e+307  
32.5            0.00000000e+00   1.79769313e+307  0.00000000e+00   1.79769313e+307  0.00000000e+00   1.79769313e+307  0.00000000e+00   1.79769313e+307  0.00000000e+00   1.79769313e+307  
32.51111        0.00000000e+00   1.79769313e+307  0.00000000e+00   1.79769313e+307  0.00000000e+00   1.79769313e+307  0.00000000e+00   1.79769313e+307  0.00000000e+00   1.79769313e+307  
32.52222        0.00000000e+00   1.79769313e+307  0.00000000e+00   1.79769313e+307  0.00000000e+00   1.79769313e+307  0.00000000e+00   1.79769313e+307  0.00000000e+00   1.79769313e+307  
32.53333        0.00000000e+00   1.79769313e+307  0.00000000e+00   1.79769313e+307  0.00000000e+00   1.79769313e+307  0.00000000e+00   1.79769313e+307  0.00000000e+00   1.79769313e+307  
32.54444        0.00000000e+00   1.79769313e+307  0.00000000e+00   1.79769313e+307  0.00000000e+00   1.79769313e+307  0.00000000e+00   1.79769313e+307  0.00000000e+00   1.79769313e+307  
32.55556        0.00000000e+00   1.79769313e+307  0.00000000e+00   1.79769313e+307  0.00000000e+00   1.79769313e+307  0.00000000e+00   1.79769313e+307  0.00000000e+00   1.79769313e+307  
32.56667        0.00000000e+00   1.79769313e+307  0.00000000e+00   1.79769313e+307  0.00000000e+00   1.79769313e+307  0.00000000e+00   1.79769313e+307  0.00000000e+00   1.79769313e+307  
32.57778        0.00000000e+00   1.79769313e+307  0.00000000e+00   1.79769313e+307  0.00000000e+00   1.79769313e+307  0.00000000e+00   1.79769313e+307  0.00000000e+00   1.79769313e+307  
32.58889        0.00000000e+00   1.79769313e+307  0.00000000e+00   1.79769313e+307  0.00000000e+00   1.79769313e+307  0.00000000e+00   1.79769313e+307  0.00000000e+00   1.79769313e+307  
32.6            0.00000000e+00   1.79769313e+307  0.00000000e+00   1.79769313e+307  0.00000000e+00   1.79769313e+307  0.00000000e+00   1.79769313e+307  0.00000000e+00   1.79769313e+307  
32.61111        0.00000000e+00   1.79769313e+307  0.00000000e+00   1.79769313e+307  0.00000000e+00   1.79769313e+307  0.00000000e+00   1.79769313e+307  0.00000000e+00   1.79769313e+307  
32.62222        0.00000000e+00   1.79769313e+307  0.00000000e+00   1.79769313e+307  0.00000000e+00   1.79769313e+307  0.00000000e+00   1.79769313e+307  0.00000000e+00   1.79769313e+307  
32.63333        0.00000000e+00   1.79769313e+307  0.00000000e+00   1.79769313e+307  0.00000000e+00   1.79769313e+307  0.00000000e+00   1.79769313e+307  0.00000000e+00   1.79769313e+307  
32.64444        0.00000000e+00   1.79769313e+307  0.00000000e+00   1.79769313e+307  0.00000000e+00   1.79769313e+307  0.00000000e+00   1.79769313e+307  0.00000000e+00   1.79769313e+307  
32.65556        0.00000000e+00   1.79769313e+307  0.00000000e+00   1.79769313e+307  0.00000000e+00   1.79769313e+307  0.00000000e+00   1.79769313e+307  0.00000000e+00   1.79769313e+307  
32.66667        0.00000000e+00   1.79769313e+307  0.00000000e+00   1.79769313e+307  0.00000000e+00   1.79769313e+307  0.00000000e+00   1.79769313e+307  0.00000000e+00   1.79769313e+307  
32.67778        0.00000000e+00   1.79769313e+307  0.00000000e+00   1.79769313e+307  0.00000000e+00   1.79769313e+307  0.00000000e+00   1.79769313e+307  0.00000000e+00   1.79769313e+307  
32.68889        0.00000000e+00   1.79769313e+307  0.00000000e+00   1.79769313e+307  0.00000000e+00   1.79769313e+307  0.00000000e+00   1.79769313e+307  0.00000000e+00   1.79769313e+307  
32.7            0.00000000e+00   1.79769313e+307  0.00000000e+00   1.79769313e+307  0.00000000e+00   1.79769313e+307  0.00000000e+00   1.79769313e+307  0.00000000e+00   1.79769313e+307  
32.71111        0.00000000e+00   1.79769313e+307  0.00000000e+00   1.79769313e+307  0.00000000e+00   1.79769313e+307  0.00000000e+00   1.79769313e+307  0.00000000e+00   1.79769313e+307  
32.72222        0.00000000e+00   1.79769313e+307  0.00000000e+00   1.79769313e+307  0.00000000e+00   1.79769313e+307  0.00000000e+00   1.79769313e+307  0.00000000e+00   1.79769313e+307  
32.73333        0.00000000e+00   1.79769313e+307  0.00000000e+00   1.79769313e+307  0.00000000e+00   1.79769313e+307  0.00000000e+00   1.79769313e+307  0.00000000e+00   1.79769313e+307  
32.74444        0.00000000e+00   1.79769313e+307  0.00000000e+00   1.79769313e+307  0.00000000e+00   1.79769313e+307  0.00000000e+00   1.79769313e+307  0.00000000e+00   1.79769313e+307  
32.75556        0.00000000e+00   1.79769313e+307  0.00000000e+00   1.79769313e+307  0.00000000e+00   1.79769313e+307  0.00000000e+00   1.79769313e+307  0.00000000e+00   1.79769313e+307  
32.76667        0.00000000e+00   1.79769313e+307  0.00000000e+00   1.79769313e+307  0.00000000e+00   1.79769313e+307  0.00000000e+00   1.79769313e+307  0.00000000e+00   1.79769313e+307  
32.77778        0.00000000e+00   1.79769313e+307  0.00000000e+00   1.79769313e+307  0.00000000e+00   1.79769313e+307  0.00000000e+00   1.79769313e+307  0.00000000e+00   1.79769313e+307  
32.78889        0.00000000e+00   1.79769313e+307  0.00000000e+00   1.79769313e+307  0.00000000e+00   1.79769313e+307  0.00000000e+00   1.79769313e+307  0.00000000e+00   1.79769313e+307  
32.8            0.00000000e+00   1.79769313e+307  0.00000000e+00   1.79769313e+307  0.00000000e+00   1.79769313e+307  0.00000000e+00   1.79769313e+307  0.00000000e+00   1.79769313e+307  
32.81111        0.00000000e+00   1.79769313e+307  0.00000000e+00   1.79769313e+307  0.00000000e+00   1.79769313e+307  0.00000000e+00   1.79769313e+307  0.00000000e+00   1.79769313e+307  
32.82222        0.00000000e+00   1.79769313e+307  0.00000000e+00   1.79769313e+307  0.00000000e+00   1.79769313e+307  0.00000000e+00   1.79769313e+307  0.00000000e+00   1.79769313e+307  
32.83333        0.00000000e+00   1.79769313e+307  0.00000000e+00   1.79769313e+307  0.00000000e+00   1.79769313e+307  0.00000000e+00   1.79769313e+307  0.00000000e+00   1.79769313e+307  
32.84444        0.00000000e+00   1.79769313e+307  0.00000000e+00   1.79769313e+307  0.00000000e+00   1.79769313e+307  0.00000000e+00   1.79769313e+307  0.00000000e+00   1.79769313e+307  
32.85556        0.00000000e+00   1.79769313e+307  0.00000000e+00   1.79769313e+307  0.00000000e+00   1.79769313e+307  0.00000000e+00   1.79769313e+307  0.00000000e+00   1.79769313e+307  
32.86667        0.00000000e+00   1.79769313e+307  0.00000000e+00   1.79769313e+307  0.00000000e+00   1.79769313e+307  0.00000000e+00   1.79769313e+307  0.00000000e+00   1.79769313e+307  
32.87778        0.00000000e+00   1.79769313e+307  0.00000000e+00   1.79769313e+307  0.00000000e+00   1.79769313e+307  0.00000000e+00   1.79769313e+307  0.00000000e+00   1.79769313e+307  
32.88889        0.00000000e+00   1.79769313e+307  0.00000000e+00   1.79769313e+307  0.00000000e+00   1.79769313e+307  0.00000000e+00   1.79769313e+307  0.00000000e+00   1.79769313e+307  
32.9            0.00000000e+00   1.79769313e+307  0.00000000e+00   1.79769313e+307  0.00000000e+00   1.79769313e+307  0.00000000e+00   1.79769313e+307  0.00000000e+00   1.79769313e+307  
32.91111        0.00000000e+00   1.79769313e+307  0.00000000e+00   1.79769313e+307  0.00000000e+00   1.79769313e+307  0.00000000e+00   1.79769313e+307  0.00000000e+00   1.79769313e+307  
32.92222        0.00000000e+00   1.79769313e+307  0.00000000e+00   1.79769313e+307  0.00000000e+00   1.79769313e+307  0.00000000e+00   1.79769313e+307  0.00000000e+00   1.79769313e+307  
32.93333        0.00000000e+00   1.79769313e+307  0.00000000e+00   1.79769313e+307  0.00000000e+00   1.79769313e+307  0.00000000e+00   1.79769313e+307  0.00000000e+00   1.79769313e+307  
32.94444        0.00000000e+00   1.79769313e+307  0.00000000e+00   1.79769313e+307  0.00000000e+00   1.79769313e+307  0.00000000e+00   1.79769313e+307  0.00000000e+00   1.79769313e+307  
32.95556        0.00000000e+00   1.79769313e+307  0.00000000e+00   1.79769313e+307  0.00000000e+00   1.79769313e+307  0.00000000e+00   1.79769313e+307  0.00000000e+00   1.79769313e+307  
32.96667        0.00000000e+00   1.79769313e+307  0.00000000e+00   1.79769313e+307  0.00000000e+00   1.79769313e+307  0.00000000e+00   1.79769313e+307  0.00000000e+00   1.79769313e+307  
32.97778        0.00000000e+00   1.79769313e+307  0.00000000e+00   1.79769313e+307  0.00000000e+00   1.79769313e+307  0.00000000e+00   1.79769313e+307  0.00000000e+00   1.79769313e+307  
32.98889        0.00000000e+00   1.79769313e+307  0.00000000e+00   1.79769313e+307  0.00000000e+00   1.79769313e+307  0.00000000e+00   1.79769313e+307  0.00000000e+00   1.79769313e+307  
33              0.00000000e+00   1.79769313e+307  0.00000000e+00   1.79769313e+307  0.00000000e+00   1.79769313e+307  0.00000000e+00   1.79769313e+307  0.00000000e+00   1.79769313e+307  
33.01111        0.00000000e+00   1.79769313e+307  0.00000000e+00   1.79769313e+307  0.00000000e+00   1.79769313e+307  0.00000000e+00   1.79769313e+307  0.00000000e+00   1.79769313e+307  
33.02222        0.00000000e+00   1.79769313e+307  0.00000000e+00   1.79769313e+307  0.00000000e+00   1.79769313e+307  0.00000000e+00   1.79769313e+307  0.00000000e+00   1.79769313e+307  
33.03333        0.00000000e+00   1.79769313e+307  0.00000000e+00   1.79769313e+307  0.00000000e+00   1.79769313e+307  0.00000000e+00   1.79769313e+307  0.00000000e+00   1.79769313e+307  
33.04444        0.00000000e+00   1.79769313e+307  0.00000000e+00   1.79769313e+307  0.00000000e+00   1.79769313e+307  0.00000000e+00   1.79769313e+307  0.00000000e+00   1.79769313e+307  
33.05556        0.00000000e+00   1.79769313e+307  0.00000000e+00   1.79769313e+307  0.00000000e+00   1.79769313e+307  0.00000000e+00   1.79769313e+307  0.00000000e+00   1.79769313e+307  
33.06667        0.00000000e+00   1.79769313e+307  0.00000000e+00   1.79769313e+307  0.00000000e+00   1.79769313e+307  0.00000000e+00   1.79769313e+307  0.00000000e+00   1.79769313e+307  
33.07778        0.00000000e+00   1.79769313e+307  0.00000000e+00   1.79769313e+307  0.00000000e+00   1.79769313e+307  0.00000000e+00   1.79769313e+307  0.00000000e+00   1.79769313e+307  
33.08889        0.00000000e+00   1.79769313e+307  0.00000000e+00   1.79769313e+307  0.00000000e+00   1.79769313e+307  0.00000000e+00   1.79769313e+307  0.00000000e+00   1.79769313e+307  
33.1            0.00000000e+00   1.79769313e+307  0.00000000e+00   1.79769313e+307  0.00000000e+00   1.79769313e+307  0.00000000e+00   1.79769313e+307  0.00000000e+00   1.79769313e+307  
33.11111        0.00000000e+00   1.79769313e+307  0.00000000e+00   1.79769313e+307  0.00000000e+00   1.79769313e+307  0.00000000e+00   1.79769313e+307  0.00000000e+00   1.79769313e+307  
33.12222        0.00000000e+00   1.79769313e+307  0.00000000e+00   1.79769313e+307  0.00000000e+00   1.79769313e+307  0.00000000e+00   1.79769313e+307  0.00000000e+00   1.79769313e+307  
33.13333        0.00000000e+00   1.79769313e+307  0.00000000e+00   1.79769313e+307  0.00000000e+00   1.79769313e+307  0.00000000e+00   1.79769313e+307  0.00000000e+00   1.79769313e+307  
33.14444        0.00000000e+00   1.79769313e+307  0.00000000e+00   1.79769313e+307  0.00000000e+00   1.79769313e+307  0.00000000e+00   1.79769313e+307  0.00000000e+00   1.79769313e+307  
33.15556        0.00000000e+00   1.79769313e+307  0.00000000e+00   1.79769313e+307  0.00000000e+00   1.79769313e+307  0.00000000e+00   1.79769313e+307  0.00000000e+00   1.79769313e+307  
33.16667        0.00000000e+00   1.79769313e+307  0.00000000e+00   1.79769313e+307  0.00000000e+00   1.79769313e+307  0.00000000e+00   1.79769313e+307  0.00000000e+00   1.79769313e+307  
33.17778        0.00000000e+00   1.79769313e+307  0.00000000e+00   1.79769313e+307  0.00000000e+00   1.79769313e+307  0.00000000e+00   1.79769313e+307  0.00000000e+00   1.79769313e+307  
33.18889        0.00000000e+00   1.79769313e+307  0.00000000e+00   1.79769313e+307  0.00000000e+00   1.79769313e+307  0.00000000e+00   1.79769313e+307  0.00000000e+00   1.79769313e+307  
33.2            0.00000000e+00   1.79769313e+307  0.00000000e+00   1.79769313e+307  0.00000000e+00   1.79769313e+307  0.00000000e+00   1.79769313e+307  0.00000000e+00   1.79769313e+307  
33.21111        0.00000000e+00   1.79769313e+307  0.00000000e+00   1.79769313e+307  0.00000000e+00   1.79769313e+307  0.00000000e+00   1.79769313e+307  0.00000000e+00   1.79769313e+307  
33.22222        0.00000000e+00   1.79769313e+307  0.00000000e+00   1.79769313e+307  0.00000000e+00   1.79769313e+307  0.00000000e+00   1.79769313e+307  0.00000000e+00   1.79769313e+307  
33.23333        0.00000000e+00   1.79769313e+307  0.00000000e+00   1.79769313e+307  0.00000000e+00   1.79769313e+307  0.00000000e+00   1.79769313e+307  0.00000000e+00   1.79769313e+307  
33.24444        0.00000000e+00   1.79769313e+307  0.00000000e+00   1.79769313e+307  0.00000000e+00   1.79769313e+307  0.00000000e+00   1.79769313e+307  0.00000000e+00   1.79769313e+307  
33.25556        0.00000000e+00   1.79769313e+307  0.00000000e+00   1.79769313e+307  0.00000000e+00   1.79769313e+307  0.00000000e+00   1.79769313e+307  0.00000000e+00   1.79769313e+307  
33.26667        0.00000000e+00   1.79769313e+307  0.00000000e+00   1.79769313e+307  0.00000000e+00   1.79769313e+307  0.00000000e+00   1.79769313e+307  0.00000000e+00   1.79769313e+307  
33.27778        0.00000000e+00   1.79769313e+307  0.00000000e+00   1.79769313e+307  0.00000000e+00   1.79769313e+307  0.00000000e+00   1.79769313e+307  0.00000000e+00   1.79769313e+307  
33.28889        0.00000000e+00   1.79769313e+307  0.00000000e+00   1.79769313e+307  0.00000000e+00   1.79769313e+307  0.00000000e+00   1.79769313e+307  0.00000000e+00   1.79769313e+307  
33.3            0.00000000e+00   1.79769313e+307  0.00000000e+00   1.79769313e+307  0.00000000e+00   1.79769313e+307  0.00000000e+00   1.79769313e+307  0.00000000e+00   1.79769313e+307  
33.31111        0.00000000e+00   1.79769313e+307  0.00000000e+00   1.79769313e+307  0.00000000e+00   1.79769313e+307  0.00000000e+00   1.79769313e+307  0.00000000e+00   1.79769313e+307  
33.32222        0.00000000e+00   1.79769313e+307  0.00000000e+00   1.79769313e+307  0.00000000e+00   1.79769313e+307  0.00000000e+00   1.79769313e+307  0.00000000e+00   1.79769313e+307  
33.33333        0.00000000e+00   1.79769313e+307  0.00000000e+00   1.79769313e+307  0.00000000e+00   1.79769313e+307  0.00000000e+00   1.79769313e+307  0.00000000e+00   1.79769313e+307  
33.34444        0.00000000e+00   1.79769313e+307  0.00000000e+00   1.79769313e+307  0.00000000e+00   1.79769313e+307  0.00000000e+00   1.79769313e+307  0.00000000e+00   1.79769313e+307  
33.35556        0.00000000e+00   1.79769313e+307  0.00000000e+00   1.79769313e+307  0.00000000e+00   1.79769313e+307  0.00000000e+00   1.79769313e+307  0.00000000e+00   1.79769313e+307  
33.36667        0.00000000e+00   1.79769313e+307  0.00000000e+00   1.79769313e+307  0.00000000e+00   1.79769313e+307  0.00000000e+00   1.79769313e+307  0.00000000e+00   1.79769313e+307  
33.37778        0.00000000e+00   1.79769313e+307  0.00000000e+00   1.79769313e+307  0.00000000e+00   1.79769313e+307  0.00000000e+00   1.79769313e+307  0.00000000e+00   1.79769313e+307  
33.38889        0.00000000e+00   1.79769313e+307  0.00000000e+00   1.79769313e+307  0.00000000e+00   1.79769313e+307  0.00000000e+00   1.79769313e+307  0.00000000e+00   1.79769313e+307  
33.4            0.00000000e+00   1.79769313e+307  0.00000000e+00   1.79769313e+307  0.00000000e+00   1.79769313e+307  0.00000000e+00   1.79769313e+307  0.00000000e+00   1.79769313e+307  
33.41111        0.00000000e+00   1.79769313e+307  0.00000000e+00   1.79769313e+307  0.00000000e+00   1.79769313e+307  0.00000000e+00   1.79769313e+307  0.00000000e+00   1.79769313e+307  
33.42222        0.00000000e+00   1.79769313e+307  0.00000000e+00   1.79769313e+307  0.00000000e+00   1.79769313e+307  0.00000000e+00   1.79769313e+307  0.00000000e+00   1.79769313e+307  
33.43333        0.00000000e+00   1.79769313e+307  0.00000000e+00   1.79769313e+307  0.00000000e+00   1.79769313e+307  0.00000000e+00   1.79769313e+307  0.00000000e+00   1.79769313e+307  
33.44444        0.00000000e+00   1.79769313e+307  0.00000000e+00   1.79769313e+307  0.00000000e+00   1.79769313e+307  0.00000000e+00   1.79769313e+307  0.00000000e+00   1.79769313e+307  
33.45556        0.00000000e+00   1.79769313e+307  0.00000000e+00   1.79769313e+307  0.00000000e+00   1.79769313e+307  0.00000000e+00   1.79769313e+307  0.00000000e+00   1.79769313e+307  
33.46667        0.00000000e+00   1.79769313e+307  0.00000000e+00   1.79769313e+307  0.00000000e+00   1.79769313e+307  0.00000000e+00   1.79769313e+307  0.00000000e+00   1.79769313e+307  
33.47778        0.00000000e+00   1.79769313e+307  0.00000000e+00   1.79769313e+307  0.00000000e+00   1.79769313e+307  0.00000000e+00   1.79769313e+307  0.00000000e+00   1.79769313e+307  
33.48889        0.00000000e+00   1.79769313e+307  0.00000000e+00   1.79769313e+307  0.00000000e+00   1.79769313e+307  0.00000000e+00   1.79769313e+307  0.00000000e+00   1.79769313e+307  
33.5            0.00000000e+00   1.79769313e+307  0.00000000e+00   1.79769313e+307  0.00000000e+00   1.79769313e+307  0.00000000e+00   1.79769313e+307  0.00000000e+00   1.79769313e+307  
33.51111        0.00000000e+00   1.79769313e+307  0.00000000e+00   1.79769313e+307  0.00000000e+00   1.79769313e+307  0.00000000e+00   1.79769313e+307  0.00000000e+00   1.79769313e+307  
33.52222        0.00000000e+00   1.79769313e+307  0.00000000e+00   1.79769313e+307  0.00000000e+00   1.79769313e+307  0.00000000e+00   1.79769313e+307  0.00000000e+00   1.79769313e+307  
33.53333        0.00000000e+00   1.79769313e+307  0.00000000e+00   1.79769313e+307  0.00000000e+00   1.79769313e+307  0.00000000e+00   1.79769313e+307  0.00000000e+00   1.79769313e+307  
33.54444        0.00000000e+00   1.79769313e+307  0.00000000e+00   1.79769313e+307  0.00000000e+00   1.79769313e+307  0.00000000e+00   1.79769313e+307  0.00000000e+00   1.79769313e+307  
33.55556        0.00000000e+00   1.79769313e+307  0.00000000e+00   1.79769313e+307  0.00000000e+00   1.79769313e+307  0.00000000e+00   1.79769313e+307  0.00000000e+00   1.79769313e+307  
33.56667        0.00000000e+00   1.79769313e+307  0.00000000e+00   1.79769313e+307  0.00000000e+00   1.79769313e+307  0.00000000e+00   1.79769313e+307  0.00000000e+00   1.79769313e+307  
33.57778        0.00000000e+00   1.79769313e+307  0.00000000e+00   1.79769313e+307  0.00000000e+00   1.79769313e+307  0.00000000e+00   1.79769313e+307  0.00000000e+00   1.79769313e+307  
33.58889        0.00000000e+00   1.79769313e+307  0.00000000e+00   1.79769313e+307  0.00000000e+00   1.79769313e+307  0.00000000e+00   1.79769313e+307  0.00000000e+00   1.79769313e+307  
33.6            0.00000000e+00   1.79769313e+307  0.00000000e+00   1.79769313e+307  0.00000000e+00   1.79769313e+307  0.00000000e+00   1.79769313e+307  0.00000000e+00   1.79769313e+307  
33.61111        0.00000000e+00   1.79769313e+307  0.00000000e+00   1.79769313e+307  0.00000000e+00   1.79769313e+307  0.00000000e+00   1.79769313e+307  0.00000000e+00   1.79769313e+307  
33.62222        0.00000000e+00   1.79769313e+307  0.00000000e+00   1.79769313e+307  0.00000000e+00   1.79769313e+307  0.00000000e+00   1.79769313e+307  0.00000000e+00   1.79769313e+307  
33.63333        0.00000000e+00   1.79769313e+307  0.00000000e+00   1.79769313e+307  0.00000000e+00   1.79769313e+307  0.00000000e+00   1.79769313e+307  0.00000000e+00   1.79769313e+307  
33.64444        0.00000000e+00   1.79769313e+307  0.00000000e+00   1.79769313e+307  0.00000000e+00   1.79769313e+307  0.00000000e+00   1.79769313e+307  0.00000000e+00   1.79769313e+307  
33.65556        0.00000000e+00   1.79769313e+307  0.00000000e+00   1.79769313e+307  0.00000000e+00   1.79769313e+307  0.00000000e+00   1.79769313e+307  0.00000000e+00   1.79769313e+307  
33.66667        0.00000000e+00   1.79769313e+307  0.00000000e+00   1.79769313e+307  0.00000000e+00   1.79769313e+307  0.00000000e+00   1.79769313e+307  0.00000000e+00   1.79769313e+307  
33.67778        0.00000000e+00   1.79769313e+307  0.00000000e+00   1.79769313e+307  0.00000000e+00   1.79769313e+307  0.00000000e+00   1.79769313e+307  0.00000000e+00   1.79769313e+307  
33.68889        0.00000000e+00   1.79769313e+307  0.00000000e+00   1.79769313e+307  0.00000000e+00   1.79769313e+307  0.00000000e+00   1.79769313e+307  0.00000000e+00   1.79769313e+307  
33.7            0.00000000e+00   1.79769313e+307  0.00000000e+00   1.79769313e+307  0.00000000e+00   1.79769313e+307  0.00000000e+00   1.79769313e+307  0.00000000e+00   1.79769313e+307  
33.71111        0.00000000e+00   1.79769313e+307  0.00000000e+00   1.79769313e+307  0.00000000e+00   1.79769313e+307  0.00000000e+00   1.79769313e+307  0.00000000e+00   1.79769313e+307  
33.72222        0.00000000e+00   1.79769313e+307  0.00000000e+00   1.79769313e+307  0.00000000e+00   1.79769313e+307  0.00000000e+00   1.79769313e+307  0.00000000e+00   1.79769313e+307  
33.73333        0.00000000e+00   1.79769313e+307  0.00000000e+00   1.79769313e+307  0.00000000e+00   1.79769313e+307  0.00000000e+00   1.79769313e+307  0.00000000e+00   1.79769313e+307  
33.74444        0.00000000e+00   1.79769313e+307  0.00000000e+00   1.79769313e+307  0.00000000e+00   1.79769313e+307  0.00000000e+00   1.79769313e+307  0.00000000e+00   1.79769313e+307  
33.75556        0.00000000e+00   1.79769313e+307  0.00000000e+00   1.79769313e+307  0.00000000e+00   1.79769313e+307  0.00000000e+00   1.79769313e+307  0.00000000e+00   1.79769313e+307  
33.76667        0.00000000e+00   1.79769313e+307  0.00000000e+00   1.79769313e+307  0.00000000e+00   1.79769313e+307  0.00000000e+00   1.79769313e+307  0.00000000e+00   1.79769313e+307  
33.77778        0.00000000e+00   1.79769313e+307  0.00000000e+00   1.79769313e+307  0.00000000e+00   1.79769313e+307  0.00000000e+00   1.79769313e+307  0.00000000e+00   1.79769313e+307  
33.78889        0.00000000e+00   1.79769313e+307  0.00000000e+00   1.79769313e+307  0.00000000e+00   1.79769313e+307  0.00000000e+00   1.79769313e+307  0.00000000e+00   1.79769313e+307  
33.8            0.00000000e+00   1.79769313e+307  0.00000000e+00   1.79769313e+307  0.00000000e+00   1.79769313e+307  0.00000000e+00   1.79769313e+307  0.00000000e+00   1.79769313e+307  
33.81111        0.00000000e+00   1.79769313e+307  0.00000000e+00   1.79769313e+307  0.00000000e+00   1.79769313e+307  0.00000000e+00   1.79769313e+307  0.00000000e+00   1.79769313e+307  
33.82222        0.00000000e+00   1.79769313e+307  0.00000000e+00   1.79769313e+307  0.00000000e+00   1.79769313e+307  0.00000000e+00   1.79769313e+307  0.00000000e+00   1.79769313e+307  
33.83333        0.00000000e+00   1.79769313e+307  0.00000000e+00   1.79769313e+307  0.00000000e+00   1.79769313e+307  0.00000000e+00   1.79769313e+307  0.00000000e+00   1.79769313e+307  
33.84444        0.00000000e+00   1.79769313e+307  0.00000000e+00   1.79769313e+307  0.00000000e+00   1.79769313e+307  0.00000000e+00   1.79769313e+307  0.00000000e+00   1.79769313e+307  
33.85556        0.00000000e+00   1.79769313e+307  0.00000000e+00   1.79769313e+307  0.00000000e+00   1.79769313e+307  0.00000000e+00   1.79769313e+307  0.00000000e+00   1.79769313e+307  
33.86667        0.00000000e+00   1.79769313e+307  0.00000000e+00   1.79769313e+307  0.00000000e+00   1.79769313e+307  0.00000000e+00   1.79769313e+307  0.00000000e+00   1.79769313e+307  
33.87778        0.00000000e+00   1.79769313e+307  0.00000000e+00   1.79769313e+307  0.00000000e+00   1.79769313e+307  0.00000000e+00   1.79769313e+307  0.00000000e+00   1.79769313e+307  
33.88889        0.00000000e+00   1.79769313e+307  0.00000000e+00   1.79769313e+307  0.00000000e+00   1.79769313e+307  0.00000000e+00   1.79769313e+307  0.00000000e+00   1.79769313e+307  
33.9            0.00000000e+00   1.79769313e+307  0.00000000e+00   1.79769313e+307  0.00000000e+00   1.79769313e+307  0.00000000e+00   1.79769313e+307  0.00000000e+00   1.79769313e+307  
33.91111        0.00000000e+00   1.79769313e+307  0.00000000e+00   1.79769313e+307  0.00000000e+00   1.79769313e+307  0.00000000e+00   1.79769313e+307  0.00000000e+00   1.79769313e+307  
33.92222        0.00000000e+00   1.79769313e+307  0.00000000e+00   1.79769313e+307  0.00000000e+00   1.79769313e+307  0.00000000e+00   1.79769313e+307  0.00000000e+00   1.79769313e+307  
33.93333        0.00000000e+00   1.79769313e+307  0.00000000e+00   1.79769313e+307  0.00000000e+00   1.79769313e+307  0.00000000e+00   1.79769313e+307  0.00000000e+00   1.79769313e+307  
33.94444        0.00000000e+00   1.79769313e+307  0.00000000e+00   1.79769313e+307  0.00000000e+00   1.79769313e+307  0.00000000e+00   1.79769313e+307  0.00000000e+00   1.79769313e+307  
33.95556        0.00000000e+00   1.79769313e+307  0.00000000e+00   1.79769313e+307  0.00000000e+00   1.79769313e+307  0.00000000e+00   1.79769313e+307  0.00000000e+00   1.79769313e+307  
33.96667        0.00000000e+00   1.79769313e+307  0.00000000e+00   1.79769313e+307  0.00000000e+00   1.79769313e+307  0.00000000e+00   1.79769313e+307  0.00000000e+00   1.79769313e+307  
33.97778        0.00000000e+00   1.79769313e+307  0.00000000e+00   1.79769313e+307  0.00000000e+00   1.79769313e+307  0.00000000e+00   1.79769313e+307  0.00000000e+00   1.79769313e+307  
33.98889        0.00000000e+00   1.79769313e+307  0.00000000e+00   1.79769313e+307  0.00000000e+00   1.79769313e+307  0.00000000e+00   1.79769313e+307  0.00000000e+00   1.79769313e+307  
34              0.00000000e+00   1.79769313e+307  0.00000000e+00   1.79769313e+307  0.00000000e+00   1.79769313e+307  0.00000000e+00   1.79769313e+307  0.00000000e+00   1.79769313e+307  
34.01111        0.00000000e+00   1.79769313e+307  0.00000000e+00   1.79769313e+307  0.00000000e+00   1.79769313e+307  0.00000000e+00   1.79769313e+307  0.00000000e+00   1.79769313e+307  
34.02222        0.00000000e+00   1.79769313e+307  0.00000000e+00   1.79769313e+307  0.00000000e+00   1.79769313e+307  0.00000000e+00   1.79769313e+307  0.00000000e+00   1.79769313e+307  