/*--------------------------------*- C++ -*----------------------------------*\
  =========                 |
  \\      /  F ield         | OpenFOAM: The Open Source CFD Toolbox
   \\    /   O peration     | Website:  https://openfoam.org
    \\  /    A nd           | Version:  8
     \\/     M anipulation  |
\*---------------------------------------------------------------------------*/
/*   Windows 32 and 64 bit porting by blueCAPE: http://www.bluecape.com.pt   *\
|  Based on Windows porting (2.0.x v4) by Symscape: http://www.symscape.com   |
\*---------------------------------------------------------------------------*/
FoamFile
{
    version     2.0;
    format      ascii;
    class       volScalarField;
    location    "60";
    object      epsilon;
}
// * * * * * * * * * * * * * * * * * * * * * * * * * * * * * * * * * * * * * //

dimensions      [0 2 -3 0 0 0 0];

internalField   nonuniform List<scalar> 
283500
(
4.4332398e-05
4.4149188e-05
4.4094846e-05
4.4083527e-05
4.4075774e-05
4.4070096e-05
4.4065732e-05
4.4062404e-05
4.4059941e-05
4.4058161e-05
4.4056918e-05
4.40561e-05
4.4055601e-05
4.4055288e-05
4.4055114e-05
4.4055114e-05
4.4055288e-05
4.4055601e-05
4.40561e-05
4.4056918e-05
4.4058161e-05
4.4059941e-05
4.4062404e-05
4.4065732e-05
4.4070096e-05
4.4075774e-05
4.4083527e-05
4.4094846e-05
4.4149188e-05
4.4332398e-05
4.5208578e-05
4.467732e-05
4.4526383e-05
4.4494465e-05
4.4473417e-05
4.4458072e-05
4.444631e-05
4.4437347e-05
4.4430705e-05
4.4425898e-05
4.4422537e-05
4.4420322e-05
4.4418974e-05
4.4418129e-05
4.4417659e-05
4.4417659e-05
4.4418129e-05
4.4418974e-05
4.4420322e-05
4.4422537e-05
4.4425898e-05
4.4430705e-05
4.4437347e-05
4.444631e-05
4.4458072e-05
4.4473417e-05
4.4494465e-05
4.4526383e-05
4.467732e-05
4.5208578e-05
4.6538585e-05
4.5469775e-05
4.5180916e-05
4.5119301e-05
4.5080008e-05
4.5051591e-05
4.5029967e-05
4.501357e-05
4.5001418e-05
4.4992621e-05
4.4986466e-05
4.4982409e-05
4.4979939e-05
4.4978393e-05
4.4977536e-05
4.4977536e-05
4.4978393e-05
4.4979939e-05
4.4982409e-05
4.4986466e-05
4.4992621e-05
4.5001418e-05
4.501357e-05
4.5029967e-05
4.5051591e-05
4.5080008e-05
4.5119301e-05
4.5180916e-05
4.5469775e-05
4.6538585e-05
4.8304389e-05
4.6519802e-05
4.6050492e-05
4.5949904e-05
4.5887866e-05
4.5843378e-05
4.5809712e-05
4.5784259e-05
4.5765416e-05
4.5751807e-05
4.5742284e-05
4.5736005e-05
4.5732182e-05
4.5729793e-05
4.5728471e-05
4.5728471e-05
4.5729793e-05
4.5732182e-05
4.5736005e-05
4.5742284e-05
4.5751807e-05
4.5765416e-05
4.5784259e-05
4.5809712e-05
4.5843378e-05
4.5887866e-05
4.5949904e-05
4.6050492e-05
4.6519802e-05
4.8304389e-05
5.047646e-05
4.7821025e-05
4.7128645e-05
4.6980281e-05
4.6891096e-05
4.6827744e-05
4.678008e-05
4.6744184e-05
4.6717638e-05
4.6698459e-05
4.6685037e-05
4.6676195e-05
4.6670817e-05
4.6667461e-05
4.6665608e-05
4.6665608e-05
4.6667461e-05
4.6670817e-05
4.6676195e-05
4.6685037e-05
4.6698459e-05
4.6717638e-05
4.6744184e-05
4.678008e-05
4.6827744e-05
4.6891096e-05
4.6980281e-05
4.7128645e-05
4.7821025e-05
5.0476461e-05
5.3021917e-05
4.9365082e-05
4.8407573e-05
4.8203032e-05
4.8082671e-05
4.7998136e-05
4.7934931e-05
4.7887558e-05
4.7852579e-05
4.7827322e-05
4.7809653e-05
4.7798012e-05
4.7790932e-05
4.778652e-05
4.7784086e-05
4.7784086e-05
4.778652e-05
4.7790932e-05
4.7798012e-05
4.7809653e-05
4.7827322e-05
4.7852579e-05
4.7887558e-05
4.7934931e-05
4.7998136e-05
4.8082671e-05
4.8203032e-05
4.8407573e-05
4.9365083e-05
5.3021918e-05
5.5910619e-05
5.1142808e-05
4.987918e-05
4.9610076e-05
4.9454898e-05
4.9347288e-05
4.9267354e-05
4.9207783e-05
4.9163895e-05
4.9132243e-05
4.9110118e-05
4.9095554e-05
4.9086707e-05
4.9081199e-05
4.9078162e-05
4.9078162e-05
4.9081199e-05
4.9086707e-05
4.9095554e-05
4.9110118e-05
4.9132243e-05
4.9163895e-05
4.9207783e-05
4.9267354e-05
4.9347288e-05
4.9454898e-05
4.9610076e-05
4.987918e-05
5.1142808e-05
5.591062e-05
5.9117507e-05
5.3145371e-05
5.1535777e-05
5.1193437e-05
5.1000112e-05
5.0867896e-05
5.0770346e-05
5.069812e-05
5.0645056e-05
5.0606857e-05
5.0580191e-05
5.0562666e-05
5.055204e-05
5.0545435e-05
5.0541789e-05
5.0541789e-05
5.0545435e-05
5.055204e-05
5.0562666e-05
5.0580191e-05
5.0606857e-05
5.0645056e-05
5.069812e-05
5.0770346e-05
5.0867896e-05
5.1000112e-05
5.1193437e-05
5.1535777e-05
5.3145371e-05
5.9117509e-05
6.2623589e-05
5.5365073e-05
5.337059e-05
5.2945834e-05
5.2711178e-05
5.2553082e-05
5.2437272e-05
5.2352157e-05
5.2289832e-05
5.2245078e-05
5.2213889e-05
5.2193436e-05
5.2181074e-05
5.2173399e-05
5.2169153e-05
5.2169153e-05
5.2173399e-05
5.2181074e-05
5.2193436e-05
5.2213889e-05
5.2245078e-05
5.2289832e-05
5.2352157e-05
5.2437272e-05
5.2553082e-05
5.2711178e-05
5.2945834e-05
5.337059e-05
5.5365074e-05
6.2623591e-05
6.6416454e-05
5.7795912e-05
5.5378158e-05
5.4861135e-05
5.458197e-05
5.4396881e-05
5.426235e-05
5.4164287e-05
5.4092765e-05
5.4041567e-05
5.4005966e-05
5.3982685e-05
5.3968669e-05
5.395998e-05
5.395516e-05
5.395516e-05
5.395998e-05
5.3968669e-05
5.3982685e-05
5.4005966e-05
5.4041567e-05
5.4092765e-05
5.4164287e-05
5.426235e-05
5.4396881e-05
5.458197e-05
5.4861135e-05
5.5378158e-05
5.7795912e-05
6.6416457e-05
7.0490461e-05
6.0434e-05
5.7554582e-05
5.693466e-05
5.6607697e-05
5.6394571e-05
5.6240982e-05
5.6130054e-05
5.6049525e-05
5.5992102e-05
5.5952281e-05
5.592633e-05
5.5910785e-05
5.5901164e-05
5.5895804e-05
5.5895804e-05
5.5901164e-05
5.5910785e-05
5.592633e-05
5.5952281e-05
5.5992102e-05
5.6049525e-05
5.6130054e-05
5.6240982e-05
5.6394571e-05
5.6607697e-05
5.693466e-05
5.7554582e-05
6.0434e-05
7.0490464e-05
7.4846857e-05
6.3277771e-05
5.9897702e-05
5.9163362e-05
5.8785098e-05
5.8542873e-05
5.8369959e-05
5.8246354e-05
5.8157116e-05
5.809378e-05
5.8050011e-05
5.8021607e-05
5.8004702e-05
5.7994255e-05
5.7988405e-05
5.7988405e-05
5.7994255e-05
5.8004702e-05
5.8021607e-05
5.8050011e-05
5.809378e-05
5.8157116e-05
5.8246354e-05
5.8369959e-05
5.8542873e-05
5.8785098e-05
5.9163362e-05
5.9897702e-05
6.3277771e-05
7.4846861e-05
7.9493886e-05
6.632816e-05
6.2407183e-05
6.1545925e-05
6.1112564e-05
6.0840072e-05
6.0647578e-05
6.0511552e-05
6.0413992e-05
6.0345148e-05
6.0297776e-05
6.0267198e-05
6.0249144e-05
6.0238008e-05
6.023173e-05
6.023173e-05
6.0238008e-05
6.0249144e-05
6.0267198e-05
6.0297776e-05
6.0345148e-05
6.0413992e-05
6.0511552e-05
6.0647578e-05
6.0840072e-05
6.1112564e-05
6.1545925e-05
6.2407184e-05
6.6328161e-05
7.9493891e-05
8.4446935e-05
6.95888e-05
6.5084487e-05
6.4082771e-05
6.3590163e-05
6.3286066e-05
6.3073697e-05
6.2925537e-05
6.2820109e-05
6.2746242e-05
6.2695689e-05
6.2663276e-05
6.2644332e-05
6.2632678e-05
6.262605e-05
6.262605e-05
6.2632678e-05
6.2644332e-05
6.2663276e-05
6.2695689e-05
6.2746242e-05
6.2820109e-05
6.2925537e-05
6.3073697e-05
6.3286066e-05
6.3590163e-05
6.4082771e-05
6.5084487e-05
6.9588801e-05
8.444694e-05
8.9728967e-05
7.3066151e-05
6.7932864e-05
6.6776041e-05
6.6219645e-05
6.5882381e-05
6.5649755e-05
6.5489741e-05
6.5376947e-05
6.5298613e-05
6.5245374e-05
6.5211531e-05
6.519201e-05
6.5180041e-05
6.5173157e-05
6.5173157e-05
6.5180041e-05
6.519201e-05
6.5211531e-05
6.5245374e-05
6.5298613e-05
6.5376947e-05
6.5489741e-05
6.5649755e-05
6.5882381e-05
6.6219645e-05
6.6776041e-05
6.7932864e-05
7.3066151e-05
8.9728973e-05
9.5370598e-05
7.6769589e-05
7.0957435e-05
6.9629577e-05
6.9004435e-05
6.8632174e-05
6.8378783e-05
6.8207158e-05
6.8087522e-05
6.8005336e-05
6.7949976e-05
6.7915175e-05
6.7895444e-05
6.7883405e-05
6.7876378e-05
6.7876378e-05
6.7883405e-05
6.7895444e-05
6.7915175e-05
6.7949976e-05
6.8005336e-05
6.8087522e-05
6.8207158e-05
6.8378783e-05
6.8632174e-05
6.9004435e-05
6.9629577e-05
7.0957435e-05
7.676959e-05
9.5370605e-05
0.00010140909
8.0711474e-05
7.4165218e-05
7.2648903e-05
7.1949617e-05
7.1540234e-05
7.1265415e-05
7.1082358e-05
7.0956401e-05
7.0871019e-05
7.0814166e-05
7.0778945e-05
7.0759429e-05
7.0747608e-05
7.0740569e-05
7.0740569e-05
7.0747608e-05
7.0759429e-05
7.0778945e-05
7.0814166e-05
7.0871019e-05
7.0956401e-05
7.1082358e-05
7.1265415e-05
7.1540234e-05
7.1949617e-05
7.2648903e-05
7.4165218e-05
8.0711475e-05
0.0001014091
0.00010788699
8.4907186e-05
7.7565173e-05
7.584123e-05
7.5061912e-05
7.4613004e-05
7.4315921e-05
7.4121507e-05
7.3989725e-05
7.3901828e-05
7.3844161e-05
7.380912e-05
7.3790304e-05
7.3779033e-05
7.3772137e-05
7.3772137e-05
7.3779033e-05
7.3790304e-05
7.380912e-05
7.3844161e-05
7.3901828e-05
7.3989725e-05
7.4121507e-05
7.4315921e-05
7.4613004e-05
7.5061912e-05
7.584123e-05
7.7565174e-05
8.4907186e-05
0.000107887
0.00011485086
8.9375191e-05
8.1168303e-05
7.9215516e-05
7.8349727e-05
7.7858618e-05
7.7538254e-05
7.7332424e-05
7.7195262e-05
7.7105539e-05
7.7047778e-05
7.7013573e-05
7.6995997e-05
7.6985654e-05
7.6979074e-05
7.6979074e-05
7.6985654e-05
7.6995997e-05
7.7013573e-05
7.7047778e-05
7.7105539e-05
7.7195262e-05
7.7332424e-05
7.7538254e-05
7.7858619e-05
7.8349727e-05
7.9215516e-05
8.1168304e-05
8.9375192e-05
0.00011485087
0.00012235032
9.4137117e-05
8.4987784e-05
8.2782561e-05
8.1823215e-05
8.1286947e-05
8.0942112e-05
8.0724647e-05
8.058248e-05
8.049161e-05
8.0434499e-05
8.040183e-05
8.0386085e-05
8.0377094e-05
8.0371023e-05
8.0371023e-05
8.0377094e-05
8.0386085e-05
8.040183e-05
8.0434499e-05
8.049161e-05
8.058248e-05
8.0724647e-05
8.0942112e-05
8.1286947e-05
8.1823215e-05
8.2782561e-05
8.4987784e-05
9.4137118e-05
0.00012235034
0.00013043756
9.9217855e-05
8.9039158e-05
8.6555129e-05
8.549438e-05
8.4909672e-05
8.4539015e-05
8.4309542e-05
8.4162645e-05
8.4071276e-05
8.4015568e-05
8.398517e-05
8.3971891e-05
8.3964715e-05
8.3959365e-05
8.3959365e-05
8.3964715e-05
8.3971891e-05
8.398517e-05
8.4015568e-05
8.4071276e-05
8.4162645e-05
8.4309542e-05
8.4539015e-05
8.4909672e-05
8.549438e-05
8.6555129e-05
8.9039159e-05
9.9217856e-05
0.00013043758
0.00013916739
0.00010464575
9.3340606e-05
9.0548152e-05
8.9377238e-05
8.8740444e-05
8.8342458e-05
8.810045e-05
8.7948982e-05
8.7857705e-05
8.7804149e-05
8.7776774e-05
8.7766626e-05
8.7761767e-05
8.7757365e-05
8.7757365e-05
8.7761767e-05
8.7766626e-05
8.7776774e-05
8.7804149e-05
8.7857705e-05
8.7948982e-05
8.810045e-05
8.8342458e-05
8.8740444e-05
8.9377238e-05
9.0548152e-05
9.3340606e-05
0.00010464575
0.00013916741
0.00014859777
0.00011045284
9.791325e-05
9.4778967e-05
9.3488023e-05
9.2795083e-05
9.236809e-05
9.2112877e-05
9.1956878e-05
9.1866195e-05
9.1815508e-05
9.1791914e-05
9.1785583e-05
9.1783563e-05
9.1780346e-05
9.1780346e-05
9.1783563e-05
9.1785583e-05
9.1791914e-05
9.1815508e-05
9.1866195e-05
9.1956878e-05
9.2112877e-05
9.236809e-05
9.2795083e-05
9.3488023e-05
9.4778968e-05
9.791325e-05
0.00011045284
0.00014859779
0.00015879074
0.00011667517
0.00010278151
9.9267625e-05
9.7845442e-05
9.70918e-05
9.6633943e-05
9.6364713e-05
9.6204105e-05
9.6114408e-05
9.6067253e-05
9.6048185e-05
9.6046355e-05
9.6047721e-05
9.6045934e-05
9.6045934e-05
9.6047721e-05
9.6046355e-05
9.6048185e-05
9.6067253e-05
9.6114408e-05
9.6204105e-05
9.6364713e-05
9.6633943e-05
9.70918e-05
9.7845442e-05
9.9267626e-05
0.00010278151
0.00011667517
0.00015879077
0.00016981388
0.00012335325
0.00010797357
0.00010403727
0.000102471
0.0001016515
0.00010116072
0.00010087652
0.00010071111
0.00010062267
0.00010057963
0.00010056579
0.00010056915
0.00010057446
0.00010057436
0.00010057436
0.00010057446
0.00010056915
0.00010056579
0.00010057963
0.00010062267
0.00010071111
0.00010087652
0.00010116072
0.0001016515
0.000102471
0.00010403727
0.00010797357
0.00012335325
0.00016981391
0.00018174212
0.00013053235
0.00011352182
0.00010911457
0.00010738941
0.00010649816
0.00010597212
0.00010567186
0.00010550136
0.00010541433
0.00010537587
0.00010536791
0.00010537712
0.00010538696
0.0001053888
0.0001053888
0.00010538696
0.00010537712
0.00010536791
0.00010537587
0.00010541433
0.00010550136
0.00010567186
0.00010597212
0.00010649816
0.00010738941
0.00010911457
0.00011352182
0.00013053236
0.00018174215
0.0001946598
0.00013826297
0.00011946331
0.00011453019
0.00011262895
0.0001116592
0.00011109529
0.00011077768
0.00011060173
0.00011051615
0.00011048263
0.00011048109
0.00011049681
0.00011051176
0.0001105158
0.0001105158
0.00011051176
0.00011049681
0.00011048109
0.00011048263
0.00011051615
0.00011060173
0.00011077768
0.00011109529
0.0001116592
0.00011262895
0.00011453019
0.00011946331
0.00013826297
0.00019465983
0.00020866306
0.00014660111
0.00012584021
0.00012031914
0.00011822191
0.00011716588
0.00011656115
0.00011622475
0.00011604288
0.00011595873
0.00011593039
0.00011593572
0.00011595856
0.00011597919
0.00011598571
0.00011598571
0.00011597919
0.00011595856
0.00011593572
0.00011593039
0.00011595873
0.00011604288
0.00011622475
0.00011656115
0.00011716588
0.00011822191
0.00012031914
0.00012584021
0.00014660112
0.0002086631
0.00022386287
0.00015560848
0.00013270004
0.00012652118
0.00012420489
0.00012305362
0.00012240473
0.0001220479
0.0001218596
0.0001217768
0.0001217538
0.00012176633
0.00012179685
0.00012182375
0.00012183305
0.00012183305
0.00012182375
0.00012179685
0.00012176633
0.0001217538
0.0001217768
0.0001218596
0.0001220479
0.00012240473
0.00012305362
0.00012420489
0.00012652118
0.00013270004
0.00015560848
0.00022386291
0.00024038824
0.00016535295
0.00014009603
0.00013318113
0.00013061916
0.00012936233
0.00012866551
0.00012828647
0.00012809114
0.00012800954
0.00012799198
0.00012801197
0.00012805066
0.00012808443
0.00012809683
0.00012809683
0.00012808443
0.00012805066
0.00012801197
0.00012799198
0.00012800954
0.00012809114
0.00012828647
0.00012866551
0.00012936233
0.00013061916
0.00013318113
0.00014009603
0.00016535296
0.00024038829
0.0002583899
0.00017590929
0.00014808745
0.00014034906
0.00013751082
0.00013613662
0.00013538764
0.00013498444
0.00013478149
0.0001347009
0.00013468884
0.00013471646
0.00013476377
0.000134805
0.00013482082
0.00013482082
0.000134805
0.00013476377
0.00013471646
0.00013468884
0.0001347009
0.00013478149
0.00013498444
0.00013538764
0.00013613662
0.00013751082
0.00014034906
0.00014808745
0.0001759093
0.00025838995
0.00027804449
0.00018735995
0.00015673996
0.00014808066
0.00014493113
0.00014342601
0.00014262011
0.00014219068
0.00014197951
0.00014189975
0.00014189324
0.00014192863
0.00014198493
0.00014203421
0.00014205386
0.00014205386
0.00014203421
0.00014198493
0.00014192863
0.00014189324
0.00014189975
0.00014197951
0.00014219068
0.00014262011
0.00014342601
0.00014493113
0.00014808066
0.00015673996
0.00018735996
0.00027804455
0.00029955924
0.00019979585
0.00016612596
0.00015643738
0.00015293656
0.00015128504
0.0001504168
0.00014995891
0.00014973896
0.00014965989
0.00014965898
0.00014970223
0.00014976791
0.00014982586
0.00014984979
0.00014984979
0.00014982586
0.00014976791
0.00014970223
0.00014965898
0.00014965989
0.00014973896
0.0001499589
0.0001504168
0.00015128504
0.00015293656
0.00015643738
0.00016612596
0.00019979586
0.0002995593
0.00032317809
0.00021331779
0.00017632526
0.00016548694
0.0001615892
0.00015977354
0.00015883682
0.00015834803
0.00015811878
0.00015804028
0.00015804508
0.00015809628
0.00015817168
0.00015823903
0.00015826774
0.00015826774
0.00015823903
0.00015817168
0.00015809628
0.00015804508
0.00015804028
0.00015811878
0.00015834803
0.00015883682
0.00015977354
0.0001615892
0.00016548694
0.00017632526
0.0002133178
0.00032317817
0.00034918852
0.0002280379
0.00018742575
0.00017530364
0.00017095698
0.0001689569
0.0001679446
0.00016742226
0.00016718317
0.00016710521
0.00016711587
0.00016717515
0.00016726066
0.00016733823
0.00016737231
0.00016737231
0.00016733823
0.00016726066
0.00016717515
0.00016711587
0.00016710521
0.00016718317
0.00016742226
0.0001679446
0.00016895689
0.00017095698
0.00017530364
0.00018742575
0.00022803791
0.0003491886
0.00037792935
0.00024408133
0.00019952414
0.00018596883
0.00018111394
0.00017890614
0.00017781006
0.00017725116
0.00017700172
0.00017692438
0.00017694116
0.00017700869
0.00017710476
0.0001771935
0.00017723358
0.00017723358
0.0001771935
0.00017710476
0.00017700869
0.00017694116
0.00017692438
0.00017700172
0.00017725116
0.00017781006
0.00017890614
0.00018111394
0.00018596883
0.00019952414
0.00024408134
0.00037792944
0.00040980041
0.00026158893
0.00021272727
0.00019757172
0.00019214084
0.00018969856
0.0001885091
0.00018791022
0.0001876499
0.00018757335
0.0001875966
0.00018767264
0.00018777983
0.0001878808
0.00018792766
0.00018792766
0.0001878808
0.00018777983
0.00018767264
0.0001875966
0.00018757335
0.0001876499
0.00018791022
0.0001885091
0.00018969856
0.00019214084
0.00019757172
0.00021272727
0.00026158894
0.00040980052
0.00044527539
0.0002807198
0.00022715349
0.00021021014
0.00020412579
0.00020141813
0.00020012399
0.0001994812
0.00019920938
0.00019913382
0.00019916401
0.00019924892
0.0001993679
0.00019948231
0.00019953686
0.00019953686
0.00019948231
0.0001993679
0.00019924892
0.00019916401
0.00019913382
0.00019920938
0.0001994812
0.00020012399
0.00020141813
0.00020412579
0.00021021014
0.00022715349
0.0002807198
0.00044527551
0.00048491372
0.00030165473
0.00024293437
0.00022399158
0.00021716493
0.00021415602
0.00021274384
0.00021205254
0.00021176841
0.00021169408
0.00021173174
0.00021182601
0.00021195762
0.00021208686
0.00021215018
0.00021215018
0.00021208686
0.00021195762
0.00021182601
0.00021173174
0.00021169408
0.00021176841
0.00021205254
0.00021274384
0.00021415602
0.00021716493
0.00022399158
0.00024293437
0.00030165474
0.00048491386
0.00052937793
0.00032460094
0.00026021718
0.00023903478
0.00023136361
0.00022801171
0.00022646561
0.00022572028
0.00022542276
0.00022534988
0.00022539562
0.00022549985
0.00022564509
0.00022579077
0.00022586412
0.00022586412
0.00022579077
0.00022564509
0.00022549985
0.00022539562
0.00022534988
0.00022542276
0.00022572028
0.00022646561
0.00022801171
0.00023136361
0.00023903478
0.00026021718
0.00032460095
0.00052937809
0.00057945074
0.00034979691
0.00027916754
0.00025547134
0.00024683757
0.00024309392
0.00024139494
0.00024058887
0.00024027645
0.00024020519
0.0002402597
0.00024037464
0.00024053471
0.00024069865
0.00024078347
0.00024078347
0.00024069865
0.00024053471
0.00024037464
0.0002402597
0.00024020519
0.00024027645
0.00024058887
0.00024139494
0.00024309392
0.00024683757
0.00025547134
0.00027916754
0.00034979692
0.00057945092
0.00063605827
0.00037751788
0.00029997245
0.00027344777
0.00026371436
0.00025952176
0.00025764713
0.00025677209
0.00025644271
0.00025637316
0.0002564372
0.00025656372
0.00025674004
0.00025692433
0.00025702223
0.00025702223
0.00025692433
0.00025674004
0.00025656372
0.0002564372
0.00025637316
0.00025644271
0.00025677209
0.00025764713
0.00025952176
0.00026371435
0.00027344777
0.00029997245
0.0003775179
0.00063605847
0.000700295
0.00040808362
0.00032284469
0.00029312833
0.00028213521
0.00027742613
0.00027534844
0.00027439434
0.00027404555
0.0002739777
0.00027405208
0.00027419124
0.00027438543
0.00027459237
0.00027470518
0.00027470518
0.00027459237
0.00027438543
0.00027419124
0.00027405208
0.0002739777
0.00027404555
0.00027439434
0.00027534844
0.00027742613
0.00028213521
0.00029312833
0.00032284469
0.00040808363
0.00070029522
0.00077345302
0.00044186738
0.00034802662
0.00031469759
0.0003022574
0.00029695214
0.00029463834
0.00029359273
0.00029322081
0.00029315478
0.0002932405
0.00029339353
0.00029360748
0.00029383961
0.00029396932
0.00029396932
0.00029383961
0.00029360748
0.00029339353
0.0002932405
0.00029315478
0.00029322081
0.00029359273
0.00029463834
0.00029695214
0.0003022574
0.00031469759
0.00034802663
0.00044186739
0.00077345328
0.000857055
0.00047930788
0.0003757947
0.00033836344
0.00032425707
0.00031826106
0.00031567123
0.00031451871
0.00031411874
0.00031405392
0.00031415236
0.00031432073
0.00031455662
0.00031481673
0.00031496551
0.00031496551
0.00031481673
0.00031455662
0.00031432073
0.00031415236
0.00031405392
0.00031411874
0.00031451871
0.00031567123
0.00031826106
0.00032425707
0.00033836344
0.0003757947
0.00047930789
0.0008570553
0.00095289238
0.00052091813
0.0004064651
0.00036436208
0.0003483322
0.00034153302
0.0003386189
0.00033734041
0.00033690595
0.00033684127
0.00033695345
0.00033713923
0.00033739954
0.00033769074
0.00033786097
0.00033786097
0.00033769074
0.00033739954
0.00033713923
0.00033695345
0.00033684127
0.00033690595
0.0003373404
0.00033861889
0.00034153302
0.0003483322
0.00036436208
0.0004064651
0.00052091815
0.00095289272
0.0010630648
0.00056729842
0.00044040041
0.00039296204
0.00037470597
0.00036696978
0.00036367301
0.00036224499
0.00036176769
0.00036170145
0.00036182822
0.00036203378
0.00036232144
0.00036264717
0.00036284141
0.00036284141
0.00036264717
0.00036232144
0.00036203378
0.00036182821
0.00036170145
0.00036176769
0.00036224499
0.00036367301
0.00036696978
0.00037470597
0.00039296204
0.00044040041
0.00056729844
0.0010630652
0.0011900216
0.00061915062
0.00047801648
0.00042446894
0.00040363042
0.0003947978
0.00039104786
0.00038944122
0.00038891032
0.00038884
0.00038898207
0.00038920955
0.00038952831
0.00038989243
0.00039011338
0.00039011338
0.00038989243
0.00038952831
0.00038920955
0.00038898207
0.00038884
0.00038891032
0.00038944122
0.00039104786
0.0003947978
0.00040363042
0.00042446893
0.00047801648
0.00061915065
0.001190022
0.0013366093
0.00067729331
0.00051979043
0.00045923147
0.00043539132
0.0004252724
0.00042098414
0.00041916306
0.00041856485
0.00041848686
0.00041864472
0.00041889642
0.00041924989
0.00041965659
0.00041990729
0.00041990729
0.00041965659
0.00041924989
0.00041889642
0.00041864472
0.00041848686
0.00041856485
0.00041916306
0.00042098413
0.0004252724
0.00043539132
0.00045923147
0.00051979043
0.00067729333
0.0013366099
0.0015061218
0.00074267655
0.00056626819
0.00049764736
0.00047031288
0.0004586817
0.00045375242
0.00045167287
0.00045098999
0.00045089941
0.00045107326
0.00045135166
0.00045174383
0.0004521977
0.00045248143
0.00045248143
0.0004521977
0.00045174383
0.00045135166
0.00045107326
0.00045089941
0.00045098999
0.00045167287
0.00045375242
0.0004586817
0.00047031288
0.00049764736
0.0005662682
0.00074267658
0.0015061224
0.0017023498
0.0008164012
0.00061807263
0.00054016968
0.00050876276
0.0004953508
0.00048965689
0.00048726495
0.00048647555
0.0004863657
0.00048655529
0.00048686302
0.00048729826
0.00048780432
0.00048812466
0.00048812466
0.00048780432
0.00048729826
0.00048686302
0.00048655529
0.0004863657
0.00048647555
0.00048726494
0.00048965689
0.0004953508
0.00050876276
0.00054016968
0.00061807264
0.00081640123
0.0017023505
0.0019296428
0.0008997243
0.00067591324
0.00058731419
0.00055115845
0.00053564744
0.00052904046
0.00052627029
0.00052534699
0.00052520886
0.00052541327
0.00052575312
0.00052623624
0.00052679993
0.00052716074
0.00052716074
0.00052679993
0.00052623624
0.00052575312
0.00052541326
0.00052520885
0.00052534698
0.00052627029
0.00052904046
0.00053564744
0.00055115845
0.00058731419
0.00067591324
0.00089972434
0.0019296436
0.0021929734
0.00099408076
0.00074059471
0.00063966589
0.0005979732
0.00057998707
0.00057228938
0.00056906086
0.00056796948
0.00056779112
0.00056800841
0.00056838324
0.00056891948
0.00056954674
0.00056995217
0.00056995217
0.00056954674
0.00056891948
0.00056838324
0.00056800841
0.00056779111
0.00056796948
0.00056906086
0.00057228938
0.00057998707
0.0005979732
0.00063966588
0.00074059471
0.0009940808
0.0021929743
0.0024980062
0.0011011092
0.00081302531
0.00069788619
0.00064974217
0.00062883824
0.00061983796
0.00061605396
0.0006147521
0.00061451787
0.00061474474
0.00061515721
0.00061575225
0.00061644952
0.00061690406
0.00061690406
0.00061644952
0.00061575225
0.00061515721
0.00061474474
0.00061451787
0.0006147521
0.00061605396
0.00061983795
0.00062883824
0.00064974216
0.00069788619
0.00081302531
0.0011011092
0.0024980073
0.0028511798
0.0012226666
0.00089422744
0.0007627222
0.00070707033
0.00068272955
0.0006721749
0.00066771811
0.00066615349
0.00066584317
0.00066607445
0.00066652685
0.00066718667
0.00066796089
0.00066846932
0.00066846932
0.00066796089
0.00066718667
0.00066652684
0.00066607445
0.00066584317
0.00066615349
0.0006677181
0.0006721749
0.00068272955
0.00070707032
0.0007627222
0.00089422744
0.0012226666
0.002851181
0.003259793
0.0013608469
0.00098534609
0.00083501403
0.0007706393
0.0007422558
0.00072984882
0.00072457811
0.00072268658
0.00072227433
0.00072250245
0.00072299631
0.00072372708
0.00072458566
0.00072515304
0.00072515304
0.00072458566
0.00072372708
0.00072299631
0.00072250245
0.00072227432
0.00072268658
0.00072457811
0.00072984882
0.00074225579
0.00077063929
0.00083501402
0.00098534609
0.001360847
0.0032597944
0.0037321013
0.0015179997
0.0010876548
0.00091570137
0.00084121386
0.00080808404
0.00079347368
0.00078722008
0.0007849233
0.00078437637
0.00078459067
0.00078512643
0.00078593431
0.000786885
0.00078751666
0.00078751666
0.000786885
0.00078593431
0.00078512643
0.00078459067
0.00078437637
0.00078492329
0.00078722008
0.00079347368
0.00080808404
0.00084121385
0.00091570136
0.0010876548
0.0015179998
0.003732103
0.0042774391
0.0016967565
0.001202566
0.001005832
0.00091965042
0.00088096147
0.00086373621
0.00085629822
0.00085350105
0.00085277833
0.00085296422
0.00085354073
0.00085443159
0.00085548241
0.00085618381
0.00085618381
0.00085548241
0.00085443159
0.00085354073
0.00085296421
0.00085277833
0.00085350105
0.00085629822
0.0008637362
0.00088096146
0.00091965042
0.001005832
0.001202566
0.0016967566
0.0042774411
0.0049063492
0.0019000502
0.0013316382
0.0011065683
0.0010069037
0.00096172163
0.00094140153
0.00093254031
0.00092912781
0.00092817806
0.000928316
0.00092892996
0.00092990909
0.00093106809
0.00093184478
0.00093184477
0.00093106808
0.00092990909
0.00092892996
0.000928316
0.00092817805
0.0009291278
0.0009325403
0.00094140152
0.00096172162
0.0010069037
0.0011065683
0.0013316382
0.0019000503
0.0049063515
0.005630724
0.0021311393
0.0014765833
0.001219193
0.0011040328
0.0010512906
0.0010273188
0.0010167527
0.0010125868
0.0010113467
0.0010114111
0.0010120563
0.001013128
0.001014403
0.0010152605
0.0010152605
0.001014403
0.001013128
0.0010120563
0.0010114111
0.0010113467
0.0010125868
0.0010167527
0.0010273188
0.0010512906
0.0011040328
0.001219193
0.0014765833
0.0021311394
0.0056307267
0.0064639274
0.0023936394
0.0016392761
0.0013451166
0.0012122095
0.001150695
0.0011224291
0.0011098277
0.0011047435
0.0011031353
0.0011030929
0.0011037597
0.0011049268
0.0011063251
0.0011072686
0.0011072686
0.0011063251
0.0011049268
0.0011037597
0.0011030929
0.0011031353
0.0011047435
0.0011098277
0.0011224291
0.001150695
0.0012122095
0.0013451166
0.0016392761
0.0023936395
0.0064639306
0.0074211031
0.0026915538
0.0018217597
0.0014858828
0.0013327238
0.001261068
0.0012277707
0.0012127486
0.0012065504
0.0012044795
0.001204288
0.0012049622
0.0012062254
0.0012077532
0.0012087876
0.0012087876
0.0012077532
0.0012062254
0.0012049621
0.001204288
0.0012044795
0.0012065504
0.0012127486
0.0012277707
0.001261068
0.0013327238
0.0014858828
0.0018217596
0.002691554
0.0074211068
0.0085193551
0.0030293044
0.002026251
0.001643171
0.0014669879
0.0013836537
0.001344484
0.0013265946
0.0013190512
0.0013164031
0.0013160091
0.0013166708
0.0013180283
0.0013196904
0.00132082
0.00132082
0.0013196904
0.0013180283
0.0013166708
0.0013160091
0.0013164031
0.0013190511
0.0013265946
0.001344484
0.0013836537
0.0014669879
0.001643171
0.002026251
0.0030293046
0.0085193593
0.0097780449
0.0034117718
0.0022551519
0.0018188035
0.0016165436
0.0015198149
0.0014738187
0.0014525472
0.0014433875
0.0014400248
0.0014393623
0.0014399847
0.0014414308
0.0014432302
0.0014444584
0.0014444584
0.0014432302
0.0014414308
0.0014399847
0.0014393623
0.0014400248
0.0014433875
0.0014525472
0.0014738187
0.0015198149
0.0016165436
0.0018188034
0.0022551518
0.003411772
0.0097780499
0.011219105
0.0038443369
0.0025110548
0.0020147466
0.0017830658
0.0016710373
0.0016171384
0.0015918948
0.0015808028
0.0015765617
0.0015755493
0.0015760973
0.0015776219
0.0015795591
0.001580888
0.001580888
0.0015795591
0.0015776219
0.0015760973
0.0015755493
0.0015765616
0.0015808028
0.0015918948
0.0016171384
0.0016710373
0.0017830658
0.0020147465
0.0025110548
0.0038443372
0.011219111
0.012867385
0.004333459
0.0027967528
0.002233112
0.0019683638
0.0018389324
0.0017759234
0.0017460352
0.0017326448
0.0017273314
0.0017258707
0.0017262992
0.0017278861
0.0017299585
0.0017313889
0.0017313889
0.0017299585
0.0017278861
0.0017262992
0.0017258707
0.0017273314
0.0017326448
0.0017460352
0.0017759234
0.0018389324
0.0019683637
0.0022331119
0.0027967527
0.0043334594
0.012867392
0.014751051
0.0048868247
0.003115255
0.0024761616
0.0021743871
0.0020252436
0.0019517778
0.0019164827
0.0019003721
0.0018937591
0.0018917313
0.001891983
0.0018936094
0.0018958103
0.0018973411
0.0018973411
0.0018958103
0.0018936094
0.001891983
0.0018917313
0.0018937591
0.0019003721
0.0019164827
0.0019517777
0.0020252436
0.002174387
0.0024761615
0.003115255
0.0048868251
0.014751059
0.016901944
0.0055115691
0.0034697791
0.0027463048
0.0024032247
0.0022318476
0.002146431
0.0021048698
0.002085556
0.002077378
0.0020746415
0.0020746454
0.00207628
0.0020785983
0.0020802262
0.0020802262
0.0020785983
0.00207628
0.0020746454
0.0020746415
0.002077378
0.002085556
0.0021048698
0.002146431
0.0022318475
0.0024032246
0.0027463047
0.003469779
0.0055115695
0.016901953
0.019356032
0.0062153748
0.0038637481
0.0030460916
0.0026571015
0.0024607526
0.0023617371
0.0023129466
0.0022898794
0.002279829
0.0022762159
0.0022758852
0.0022774871
0.002279906
0.0022816251
0.0022816251
0.002279906
0.0022774871
0.0022758852
0.0022762159
0.002279829
0.0022898794
0.0023129466
0.0023617371
0.0024607526
0.0026571014
0.0030460915
0.003863748
0.0062153754
0.019356043
0.022153748
0.0070067394
0.0043008067
0.0033782186
0.0029383799
0.0027141014
0.0025996774
0.0025425839
0.0025151407
0.002502864
0.0024981775
0.002497407
0.0024989244
0.002501421
0.0025032222
0.0025032222
0.002501421
0.0024989244
0.002497407
0.0024981775
0.002502864
0.0025151407
0.0025425839
0.0025996774
0.0027141014
0.0029383798
0.0033782185
0.0043008066
0.0070067401
0.022153761
0.025339572
0.0078951043
0.0047848173
0.0037455274
0.0032495558
0.0029941676
0.0028623612
0.0027957757
0.002763256
0.0027483486
0.0027423597
0.0027410244
0.0027423931
0.002744937
0.0027468079
0.0027468079
0.002744937
0.0027423931
0.0027410243
0.0027423596
0.0027483486
0.002763256
0.0027957757
0.0028623611
0.0029941675
0.0032495557