/*--------------------------------*- C++ -*----------------------------------*\
  =========                 |
  \\      /  F ield         | OpenFOAM: The Open Source CFD Toolbox
   \\    /   O peration     | Website:  https://openfoam.org
    \\  /    A nd           | Version:  8
     \\/     M anipulation  |
\*---------------------------------------------------------------------------*/
/*   Windows 32 and 64 bit porting by blueCAPE: http://www.bluecape.com.pt   *\
|  Based on Windows porting (2.0.x v4) by Symscape: http://www.symscape.com   |
\*---------------------------------------------------------------------------*/
FoamFile
{
    version     2.0;
    format      ascii;
    class       volScalarField;
    location    "60";
    object      k;
}
// * * * * * * * * * * * * * * * * * * * * * * * * * * * * * * * * * * * * * //

dimensions      [0 2 -2 0 0 0 0];

internalField   nonuniform List<scalar> 
283500
(
0.0041391158
0.0041381566
0.0041380922
0.0041380668
0.0041380525
0.0041380423
0.004138035
0.0041380298
0.004138026
0.0041380233
0.0041380214
0.0041380202
0.0041380194
0.0041380189
0.0041380186
0.0041380186
0.0041380189
0.0041380194
0.0041380202
0.0041380214
0.0041380233
0.004138026
0.0041380298
0.004138035
0.0041380423
0.0041380525
0.0041380668
0.0041380922
0.0041381566
0.0041391158
0.004138266
0.0041366858
0.0041365344
0.0041364783
0.0041364521
0.0041364307
0.0041364147
0.0041364028
0.004136394
0.0041363877
0.0041363832
0.0041363803
0.0041363784
0.0041363772
0.0041363766
0.0041363766
0.0041363772
0.0041363784
0.0041363803
0.0041363832
0.0041363877
0.004136394
0.0041364028
0.0041364147
0.0041364307
0.0041364521
0.0041364783
0.0041365344
0.0041366858
0.004138266
0.0041390349
0.0041360612
0.0041357789
0.004135691
0.0041356456
0.0041356052
0.0041355761
0.0041355562
0.0041355412
0.0041355303
0.0041355225
0.0041355172
0.0041355139
0.0041355119
0.0041355108
0.0041355108
0.0041355119
0.0041355139
0.0041355172
0.0041355225
0.0041355303
0.0041355412
0.0041355562
0.0041355761
0.0041356052
0.0041356456
0.004135691
0.0041357789
0.0041360612
0.0041390349
0.0041421161
0.0041366704
0.0041361689
0.0041360613
0.0041360069
0.0041359506
0.0041359068
0.0041358746
0.0041358504
0.0041358343
0.0041358226
0.0041358146
0.0041358096
0.0041358064
0.0041358048
0.0041358048
0.0041358064
0.0041358096
0.0041358146
0.0041358226
0.0041358343
0.0041358504
0.0041358746
0.0041359068
0.0041359506
0.0041360069
0.0041360613
0.0041361689
0.0041366704
0.0041421161
0.0041479695
0.0041388598
0.0041380046
0.0041378886
0.0041378375
0.0041377742
0.0041377197
0.0041376773
0.004137644
0.0041376205
0.0041376032
0.0041375917
0.0041375848
0.0041375804
0.004137578
0.004137578
0.0041375804
0.0041375848
0.0041375917
0.0041376032
0.0041376205
0.004137644
0.0041376773
0.0041377197
0.0041377742
0.0041378375
0.0041378886
0.0041380046
0.0041388598
0.0041479695
0.0041568511
0.0041429266
0.0041415291
0.0041414205
0.0041413854
0.0041413278
0.0041412696
0.0041412218
0.0041411821
0.0041411528
0.0041411308
0.0041411157
0.0041411062
0.0041411002
0.004141097
0.004141097
0.0041411002
0.0041411062
0.0041411157
0.0041411308
0.0041411528
0.0041411821
0.0041412218
0.0041412696
0.0041413278
0.0041413854
0.0041414205
0.0041415291
0.0041429266
0.0041568511
0.0041689383
0.0041491361
0.0041469671
0.0041468752
0.0041468695
0.0041468329
0.0041467803
0.0041467338
0.0041466919
0.0041466594
0.0041466343
0.0041466166
0.0041466053
0.004146598
0.0041465941
0.0041465941
0.004146598
0.0041466053
0.0041466166
0.0041466343
0.0041466594
0.0041466919
0.0041467338
0.0041467803
0.0041468329
0.0041468695
0.0041468752
0.0041469671
0.0041491361
0.0041689383
0.0041843533
0.0041577189
0.0041545205
0.0041544431
0.0041544814
0.0041544835
0.0041544473
0.0041544105
0.0041543716
0.0041543394
0.0041543132
0.0041542943
0.004154282
0.0041542739
0.0041542695
0.0041542695
0.0041542739
0.004154282
0.0041542943
0.0041543132
0.0041543394
0.0041543716
0.0041544105
0.0041544473
0.0041544835
0.0041544814
0.0041544431
0.0041545205
0.0041577189
0.0041843533
0.0042031773
0.0041688669
0.0041643617
0.004164284
0.0041643799
0.0041644394
0.0041644318
0.0041644144
0.004164385
0.0041643575
0.0041643331
0.0041643147
0.0041643025
0.0041642944
0.0041642898
0.0041642898
0.0041642944
0.0041643025
0.0041643147
0.0041643331
0.0041643575
0.004164385
0.0041644144
0.0041644318
0.0041644394
0.0041643799
0.004164284
0.0041643617
0.0041688669
0.0042031774
0.0042254709
0.0041827342
0.0041766351
0.0041765302
0.0041766957
0.0041768309
0.004176865
0.004176878
0.0041768655
0.004176848
0.0041768287
0.004176813
0.0041768024
0.0041767951
0.0041767906
0.0041767906
0.0041767951
0.0041768024
0.004176813
0.0041768287
0.004176848
0.0041768655
0.004176878
0.004176865
0.0041768309
0.0041766957
0.0041765302
0.0041766351
0.0041827342
0.0042254709
0.0042512883
0.0041994446
0.0041914597
0.0041912919
0.0041915371
0.0041917659
0.0041918551
0.0041919104
0.0041919232
0.0041919217
0.0041919116
0.004191901
0.0041918938
0.0041918883
0.0041918844
0.0041918844
0.0041918883
0.0041918938
0.004191901
0.0041919116
0.0041919217
0.0041919232
0.0041919104
0.0041918551
0.0041917659
0.0041915371
0.0041912919
0.0041914597
0.0041994446
0.0042512883
0.0042806903
0.0042190959
0.004208935
0.0042086625
0.0042089963
0.004209335
0.0042094927
0.0042096027
0.0042096498
0.0042096711
0.0042096749
0.0042096725
0.0042096709
0.0042096685
0.0042096656
0.0042096656
0.0042096685
0.0042096709
0.0042096725
0.0042096749
0.0042096711
0.0042096498
0.0042096027
0.0042094927
0.004209335
0.0042089963
0.0042086625
0.004208935
0.0042190959
0.0042806903
0.0043137483
0.0042417668
0.0042291459
0.0042287235
0.0042291541
0.0042296171
0.0042298558
0.0042300331
0.0042301239
0.0042301757
0.0042301985
0.004230208
0.0042302144
0.0042302167
0.0042302155
0.0042302155
0.0042302167
0.0042302144
0.004230208
0.0042301985
0.0042301757
0.0042301239
0.0042300331
0.0042298558
0.0042296171
0.0042291541
0.0042287235
0.0042291459
0.0042417668
0.0043137483
0.0043505418
0.0042675251
0.0042521635
0.0042515472
0.0042520835
0.0042526832
0.0042530144
0.0042532707
0.004253415
0.004253505
0.0042535526
0.004253578
0.0042535956
0.0042536044
0.0042536056
0.0042536056
0.0042536044
0.0042535956
0.004253578
0.0042535526
0.004253505
0.004253415
0.0042532707
0.0042530144
0.0042526832
0.0042520835
0.0042515472
0.0042521635
0.0042675251
0.0043505418
0.004391158
0.0042964321
0.0042780486
0.0042771996
0.004277852
0.0042785998
0.0042790333
0.0042793795
0.0042795863
0.0042797227
0.0042798012
0.0042798471
0.0042798792
0.0042798968
0.0042799011
0.0042799011
0.0042798968
0.0042798792
0.0042798471
0.0042798012
0.0042797227
0.0042795863
0.0042793795
0.0042790333
0.0042785998
0.004277852
0.0042771996
0.0042780486
0.0042964321
0.0043911581
0.0044356908
0.0043285444
0.0043068575
0.0043057419
0.0043065246
0.0043074306
0.0043079747
0.0043084204
0.0043086982
0.0043088889
0.0043090047
0.0043090759
0.0043091264
0.0043091551
0.0043091636
0.0043091636
0.0043091551
0.0043091264
0.0043090759
0.0043090047
0.0043088889
0.0043086982
0.0043084204
0.0043079747
0.0043074306
0.0043065246
0.0043057419
0.0043068575
0.0043285444
0.0044356909
0.0044842386
0.0043639166
0.0043386439
0.0043372325
0.0043381647
0.004339239
0.0043399009
0.0043404544
0.0043408106
0.0043410628
0.004341222
0.0043413235
0.0043413965
0.0043414392
0.0043414529
0.0043414529
0.0043414392
0.0043413965
0.0043413235
0.004341222
0.0043410628
0.0043408106
0.0043404544
0.0043399009
0.004339239
0.0043381647
0.0043372325
0.0043386439
0.0043639166
0.0044842387
0.004536901
0.0044026019
0.004373461
0.0043717285
0.0043728344
0.0043740897
0.0043748756
0.0043755438
0.0043759842
0.0043763043
0.0043765126
0.0043766494
0.0043767491
0.0043768089
0.0043768289
0.0043768289
0.0043768089
0.0043767491
0.0043766494
0.0043765126
0.0043763043
0.0043759842
0.0043755438
0.0043748756
0.0043740897
0.0043728344
0.0043717285
0.004373461
0.0044026019
0.0045369011
0.0045937773
0.0044446537
0.0044113625
0.0044092871
0.0044105964
0.0044120488
0.0044129656
0.0044137534
0.0044142824
0.0044146756
0.004414938
0.0044151148
0.0044152455
0.0044153253
0.0044153529
0.0044153529
0.0044153253
0.0044152455
0.0044151148
0.004414938
0.0044146756
0.0044142824
0.0044137534
0.0044129656
0.0044120488
0.0044105964
0.0044092871
0.0044113625
0.0044446537
0.0045937774
0.0046549658
0.004490126
0.0044524036
0.0044499668
0.004451514
0.0044531847
0.0044542405
0.0044551513
0.0044557718
0.0044562421
0.0044565625
0.0044567833
0.0044569488
0.0044570521
0.0044570881
0.0044570881
0.0044570521
0.0044569488
0.0044567833
0.0044565625
0.0044562421
0.0044557718
0.0044551513
0.0044542405
0.0044531847
0.004451514
0.0044499668
0.0044524036
0.004490126
0.004654966
0.0047205665
0.0045390733
0.0044966425
0.0044938285
0.0044956526
0.0044975668
0.0044987724
0.0044998093
0.0045005224
0.0045010723
0.0045014535
0.0045017216
0.0045019254
0.0045020551
0.0045021005
0.0045021005
0.0045020551
0.0045019254
0.0045017216
0.0045014535
0.0045010723
0.0045005224
0.0044998093
0.0044987724
0.0044975668
0.0044956526
0.0044938285
0.0044966425
0.0045390733
0.0047205666
0.004790684
0.0045915508
0.0045441414
0.004540936
0.0045430796
0.0045452668
0.0045466366
0.0045478032
0.0045486086
0.004549239
0.0045496824
0.0045499997
0.0045502445
0.0045504035
0.0045504591
0.0045504591
0.0045504035
0.0045502445
0.0045499997
0.0045496824
0.004549239
0.0045486086
0.0045478032
0.0045466366
0.0045452668
0.0045430796
0.004540936
0.0045441414
0.0045915508
0.0047906842
0.0048654316
0.0046476143
0.0045949675
0.0045913573
0.0045938662
0.0045963597
0.0045979113
0.0045992128
0.0046001095
0.0046008195
0.0046013249
0.0046016925
0.00460198
0.0046021704
0.0046022365
0.0046022365
0.0046021704
0.00460198
0.0046016925
0.0046013249
0.0046008195
0.0046001095
0.0045992128
0.0045979113
0.0045963597
0.0045938662
0.0045913573
0.0045949675
0.0046476143
0.0048654319
0.0049449344
0.0047073199
0.0046491928
0.0046451653
0.0046480873
0.004650924
0.0046526785
0.0046541222
0.0046551093
0.0046558961
0.0046564617
0.0046568791
0.0046572096
0.004657433
0.0046575097
0.0046575097
0.004657433
0.0046572096
0.0046568791
0.0046564617
0.0046558961
0.0046551093
0.0046541222
0.0046526785
0.004650924
0.0046480873
0.0046451653
0.0046491928
0.0047073199
0.0049449347
0.0050293341
0.0047707238
0.0047068943
0.0047024383
0.0047058229
0.0047090419
0.0047110235
0.0047126195
0.0047136968
0.0047145565
0.0047151786
0.0047156437
0.0047160165
0.0047162735
0.0047163603
0.0047163603
0.0047162735
0.0047160165
0.0047156437
0.0047151786
0.0047145565
0.0047136968
0.0047126195
0.0047110235
0.0047090419
0.0047058229
0.0047024383
0.0047068943
0.0047707238
0.0050293344
0.0051187952
0.004837882
0.0047681539
0.0047632604
0.0047671585
0.0047708009
0.0047730359
0.0047747965
0.0047759657
0.0047768939
0.0047775669
0.0047780761
0.004778489
0.0047787792
0.0047788751
0.0047788751
0.0047787792
0.004778489
0.0047780761
0.0047775669
0.0047768939
0.0047759657
0.0047747965
0.0047730359
0.0047708009
0.0047671585
0.0047632604
0.0047681539
0.004837882
0.0051187955
0.0052135085
0.0049088508
0.0048330577
0.0048277212
0.0048321848
0.004836293
0.0048388097
0.0048407494
0.0048420144
0.0048430072
0.0048437242
0.0048442721
0.0048447215
0.0048450434
0.0048451471
0.0048451471
0.0048450434
0.0048447215
0.0048442721
0.0048437242
0.0048430072
0.0048420144
0.0048407494
0.0048388097
0.004836293
0.0048321848
0.0048277212
0.0048330577
0.0049088508
0.0052135089
0.0053136937
0.0049836859
0.0049016974
0.0048959151
0.0049009972
0.0049056147
0.0049084426
0.0049105772
0.0049119437
0.004912999
0.0049137529
0.0049143325
0.0049148137
0.0049151647
0.0049152745
0.0049152745
0.0049151647
0.0049148137
0.0049143325
0.0049137529
0.004912999
0.0049119437
0.0049105772
0.0049084426
0.0049056147
0.0049009972
0.0048959151
0.0049016974
0.0049836859
0.0053136941
0.0054196049
0.0050624382
0.0049741688
0.0049679422
0.0049736964
0.004978867
0.0049820359
0.004984382
0.004985857
0.0049869741
0.0049877582
0.0049883618
0.0049888687
0.0049892452
0.0049893595
0.0049893595
0.0049892452
0.0049888687
0.0049883618
0.0049877582
0.0049869741
0.004985857
0.004984382
0.0049820359
0.004978867
0.0049736964
0.0049679422
0.0049741688
0.0050624382
0.0054196053
0.0055315374
0.0051451543
0.0050505714
0.0050439077
0.0050503887
0.0050561561
0.0050596965
0.0050622711
0.0050638619
0.0050650411
0.0050658496
0.0050664691
0.0050669945
0.0050673918
0.0050675087
0.0050675087
0.0050673918
0.0050669945
0.0050664691
0.0050658496
0.0050650411
0.0050638619
0.0050622711
0.0050596965
0.0050561561
0.0050503887
0.0050439077
0.0050505714
0.0051451543
0.0055315378
0.0056498345
0.0052318795
0.0051310087
0.0051239211
0.0051311853
0.0051375936
0.0051415359
0.0051443565
0.0051460713
0.0051473135
0.0051481417
0.0051487692
0.005149305
0.0051497172
0.005149834
0.005149834
0.0051497172
0.005149305
0.0051487692
0.0051481417
0.0051473135
0.0051460713
0.0051443565
0.0051415359
0.0051375936
0.0051311853
0.0051239211
0.0051310086
0.0052318795
0.005649835
0.0057748956
0.0053226593
0.0052155891
0.0052080968
0.0052162019
0.005223295
0.0052276697
0.0052307541
0.005232602
0.0052339091
0.0052347534
0.0052353816
0.0052359196
0.0052363399
0.0052364551
0.0052364551
0.0052363399
0.0052359196
0.0052353816
0.0052347534
0.0052339091
0.005232602
0.0052307541
0.0052276697
0.005223295
0.0052162019
0.0052080968
0.0052155891
0.0053226594
0.0057748961
0.0059071833
0.0054175401
0.0053044259
0.0052965536
0.005305558
0.0053133797
0.0053182165
0.0053215822
0.0053235726
0.0053249474
0.0053258053
0.0053264281
0.0053269605
0.005327382
0.0053274948
0.0053274948
0.005327382
0.0053269605
0.0053264281
0.0053258053
0.0053249474
0.0053235726
0.0053215822
0.0053182165
0.0053133797
0.005305558
0.0052965536
0.0053044258
0.0054175401
0.0059071839
0.0060472385
0.0055165729
0.0053976404
0.0053894178
0.0053993794
0.0054079727
0.0054133006
0.0054169642
0.0054191062
0.0054205518
0.0054214221
0.0054220345
0.0054225541
0.0054229712
0.0054230804
0.0054230804
0.0054229712
0.0054225541
0.0054220345
0.0054214221
0.0054205518
0.0054191062
0.0054169642
0.0054133006
0.0054079727
0.0053993794
0.0053894178
0.0053976404
0.0055165729
0.0060472391
0.0061956951
0.0056198181
0.0054953646
0.005486824
0.0054977984
0.0055072046
0.0055130515
0.0055170286
0.0055193305
0.0055208506
0.0055217332
0.0055223319
0.005522833
0.0055232412
0.005523346
0.005523346
0.0055232412
0.005522833
0.0055223319
0.0055217332
0.0055208506
0.0055193305
0.0055170286
0.0055130515
0.0055072046
0.0054977984
0.005486824
0.0054953646
0.0056198181
0.0061956958
0.006353299
0.00572735
0.0055977433
0.0055889169
0.0056009542
0.0056112126
0.0056176048
0.0056219089
0.0056243787
0.0056259773
0.0056268738
0.0056274569
0.0056279357
0.0056283317
0.005628431
0.005628431
0.0056283317
0.0056279357
0.0056274569
0.0056268738
0.0056259773
0.0056243787
0.0056219089
0.0056176048
0.0056112126
0.0056009542
0.0055889169
0.0055977433
0.00572735
0.0063532997
0.0065209286
0.005839268
0.0057049403
0.005695856
0.0057089977
0.0057201442
0.0057271053
0.0057317487
0.0057343939
0.0057360754
0.0057369876
0.0057375549
0.0057380093
0.0057383905
0.0057384835
0.0057384835
0.0057383905
0.0057380093
0.0057375549
0.0057369876
0.0057360754
0.0057343939
0.0057317487
0.0057271052
0.0057201442
0.0057089977
0.005695856
0.0057049403
0.005839268
0.0065209294
0.0066996422
0.0059557041
0.0058171426
0.0058078189
0.005822094
0.0058341586
0.0058417091
0.0058467033
0.005849531
0.0058512988
0.0058522289
0.0058527812
0.0058532105
0.0058535756
0.0058536621
0.0058536621
0.0058535756
0.0058532105
0.0058527812
0.0058522289
0.0058512988
0.005849531
0.0058467033
0.0058417091
0.0058341586
0.005822094
0.0058078189
0.0058171426
0.0059557041
0.0066996431
0.0068906978
0.0060768383
0.0059345672
0.0059250044
0.0059404251
0.0059534286
0.0059615857
0.0059669408
0.0059699573
0.0059718144
0.0059727642
0.0059733029
0.0059737079
0.0059740565
0.005974137
0.005974137
0.0059740565
0.0059737079
0.0059733029
0.0059727642
0.0059718144
0.0059699573
0.0059669408
0.0059615857
0.0059534286
0.0059404251
0.0059250044
0.0059345672
0.0060768383
0.0068906987
0.0070956074
0.0062029207
0.0060574721
0.0060476407
0.0060641958
0.0060781479
0.006086924
0.0060926481
0.0060958584
0.0060978073
0.0060987786
0.0060993056
0.0060996877
0.0061000204
0.0061000958
0.0061000958
0.0061000204
0.0060996877
0.0060993056
0.0060987786
0.0060978073
0.0060958584
0.0060926481
0.006086924
0.0060781479
0.0060641958
0.0060476407
0.0060574721
0.0062029207
0.0070956084
0.0073161754
0.0063342917
0.0061861661
0.0061759917
0.0061936383
0.0062085348
0.0062179356
0.0062240336
0.0062274413
0.0062294839
0.0062304788
0.0062309961
0.0062313576
0.0062316758
0.0062317474
0.0062317474
0.0062316758
0.0062313576
0.0062309961
0.0062304788
0.0062294839
0.0062274413
0.0062240336
0.0062179356
0.0062085348
0.0061936383
0.0061759917
0.0061861661
0.0063342917
0.0073161765
0.0075545737
0.0064714062
0.006321022
0.0063103666
0.0063290191
0.0063448366
0.0063548587
0.0063613314
0.0063649388
0.0063670767
0.006368097
0.006368607
0.0063689506
0.0063692565
0.0063693259
0.0063693259
0.0063692565
0.0063689506
0.006368607
0.006368097
0.0063670767
0.0063649388
0.0063613314
0.0063548587
0.0063448366
0.0063290191
0.0063103666
0.006321022
0.0064714062
0.007554575
0.0078134045
0.0066148725
0.0064624977
0.0064511339
0.0064706452
0.0064873324
0.0064979602
0.0065048044
0.0065086169
0.006510852
0.0065119002
0.0065124054
0.0065127344
0.0065130304
0.0065130992
0.0065130992
0.0065130304
0.0065127344
0.0065124054
0.0065119002
0.006510852
0.0065086169
0.0065048044
0.0064979602
0.0064873324
0.0064706452
0.0064511339
0.0064624977
0.0066148725
0.0078134059
0.0080957834
0.0067654971
0.0066111488
0.0065987292
0.0066188783
0.0066363532
0.0066475555
0.0066547615
0.0066587764
0.0066611157
0.0066621958
0.0066626994
0.0066630173
0.006663306
0.0066633761
0.0066633761
0.006663306
0.0066630173
0.0066626994
0.0066621958
0.0066611157
0.0066587764
0.0066547615
0.0066475555
0.0066363532
0.0066188783
0.0065987292
0.0066111488
0.0067654972
0.0080957849
0.0084054323
0.0069243483
0.0067676484
0.006753668
0.0067741514
0.0067922882
0.0068040135
0.0068115631
0.0068157745
0.0068182175
0.006819339
0.0068198448
0.0068201559
0.0068204401
0.0068205133
0.0068205133
0.0068204401
0.0068201559
0.0068198448
0.006819339
0.0068182175
0.0068157745
0.0068115631
0.0068040135
0.0067922882
0.0067741514
0.0067536679
0.0067676483
0.0069243483
0.0084054339
0.0087467861
0.0070927721
0.0069328104
0.0069165755
0.0069369792
0.0069555973
0.0069677683
0.0069756319
0.0069800294
0.0069825742
0.0069837411
0.0069842585
0.0069845674
0.0069848509
0.0069849293
0.0069849293
0.0069848509
0.0069845674
0.0069842585
0.0069837411
0.0069825742
0.0069800294
0.0069756319
0.0069677683
0.0069555973
0.0069369792
0.0069165755
0.0069328104
0.0070927721
0.0087467879
0.0091251038
0.0072724534
0.0071076263
0.0070882035
0.007107975
0.0071268244
0.0071393304
0.0071474641
0.0071520312
0.0071546743
0.0071558882
0.0071564278
0.0071567412
0.0071570283
0.0071571142
0.0071571142
0.0071570283
0.0071567412
0.0071564278
0.0071558882
0.0071546743
0.0071520312
0.0071474641
0.0071393304
0.0071268244
0.007107975
0.0070882035
0.0071076263
0.0072724535
0.0091251057
0.0095465871
0.0074654828
0.007293299
0.0072694527
0.0072878683
0.0073066124
0.0073193013
0.0073276421
0.0073323545
0.0073350896
0.0073363519
0.0073369179
0.0073372491
0.0073375458
0.0073376409
0.0073376409
0.0073375458
0.0073372491
0.0073369179
0.0073363519
0.0073350896
0.0073323545
0.0073276421
0.0073193013
0.0073066124
0.0072878683
0.0072694526
0.007293299
0.0074654828
0.0095465891
0.010018518
0.0076744183
0.007491281
0.0074614037
0.0074775304
0.0074957255
0.0075083927
0.0075168538
0.007521677
0.0075244947
0.0075258061
0.0075264032
0.0075267589
0.0075270716
0.0075271794
0.0075271794
0.0075270716
0.0075267589
0.0075264032
0.0075258061
0.0075244947
0.007521677
0.0075168538
0.0075083927
0.0074957255
0.0074775304
0.0074614037
0.007491281
0.0076744184
0.010018521
0.01054941
0.0079023525
0.0077033117
0.0076653476
0.0076779995
0.0076950696
0.0077074456
0.0077159099
0.0077207964
0.0077236833
0.007725044
0.0077256771
0.0077260651
0.0077264016
0.0077265265
0.0077265265
0.0077264016
0.0077260651
0.0077256771
0.007725044
0.0077236833
0.0077207964
0.0077159099
0.0077074456
0.0076950696
0.0076779995
0.0076653476
0.0077033117
0.0079023526
0.010549412
0.011149148
0.0081529985
0.0079314594
0.0078828201
0.0078905073
0.0079057152
0.00791745
0.0079257626
0.0079306484
0.0079335848
0.0079349943
0.0079356694
0.0079360986
0.0079364682
0.0079366158
0.0079366158
0.0079364682
0.0079360986
0.0079356694
0.0079349943
0.0079335848
0.0079306484
0.0079257626
0.00791745
0.0079057152
0.0078905073
0.0078828201
0.0079314593
0.0081529986
0.011149151
0.011829165
0.008430671
0.0081781716
0.0081156397
0.0081165141
0.0081289292
0.0081395745
0.0081475338
0.0081523332
0.0081552905
0.0081567461
0.0081574706
0.0081579521
0.0081583659
0.0081585433
0.0081585433
0.0081583659
0.0081579521
0.0081574706
0.0081567461
0.0081552905
0.0081523332
0.0081475338
0.0081395745
0.0081289292
0.0081165141
0.0081156397
0.0081781716
0.0084306711
0.011829168
0.012602611
0.0087403922
0.0084463197
0.008365942
0.0083577419
0.0083662035
0.0083751925
0.0083825393
0.0083871391
0.0083900771
0.0083915723
0.0083923547
0.008392902
0.0083933737
0.0083935896
0.0083935896
0.0083933737
0.008392902
0.0083923547
0.0083915723
0.0083900771
0.0083871391
0.0083825393
0.0083751925
0.0083662035
0.0083577419
0.0083659419
0.0084463197
0.0087403923
0.012602614
0.013484526
0.0090880075
0.0087392433
0.0086362224
0.00861621
0.0086192867
0.0086259107
0.0086323146
0.0086365681
0.0086394311
0.0086409541
0.0086418027
0.0086424321
0.0086429786
0.0086432438
0.0086432438
0.0086429786
0.0086424321
0.0086418027
0.0086409541
0.0086394311
0.0086365681
0.0086323146
0.0086259107
0.0086192867
0.00861621
0.0086362224
0.0087392433
0.0090880076
0.01348453
0.014492032
0.0094802168
0.0090608035
0.0089293889
0.0088942816
0.008890225
0.0088936057
0.0088986506
0.0089023691
0.0089050829
0.0089066142
0.0089075361
0.008908266
0.0089089077
0.0089092351
0.0089092351
0.0089089077
0.008908266
0.0089075361
0.0089066142
0.0089050829
0.0089023691
0.0088986506
0.0088936057
0.008890225
0.0088942815
0.0089293889
0.0090608035
0.009480217
0.014492036
0.015644509
0.0099246336
0.0094154257
0.0092488031
0.0091947028
0.0091813989
0.0091804579
0.0091836242
0.009186568
0.0091890342
0.0091905446
0.009191544
0.0091923947
0.0091931553
0.0091935601
0.0091935601
0.0091931553
0.0091923947
0.009191544
0.0091905446
0.0091890342
0.009186568
0.0091836242
0.0091804579
0.0091813988
0.0091947028
0.009248803
0.0094154256
0.0099246337
0.015644514
0.016963784
0.010429843
0.0098081325
0.0095983172
0.0095206427
0.0094955608
0.0094889858
0.0094896301
0.0094914972
0.0094935879
0.009495035
0.0094961119
0.0094971046
0.009498011
0.0094985104
0.0094985104
0.009498011
0.0094971046
0.0094961119
0.009495035
0.0094935879
0.0094914972
0.0094896301
0.0094889858
0.0094955608
0.0095206427
0.0095983172
0.0098081325
0.010429843
0.016963789
0.018474356
0.011005483
0.01024459
0.0099823197
0.0098757412
0.0098358811
0.0098220899
0.0098194219
0.0098198353
0.0098213857
0.0098227103
0.0098238582
0.009825014
0.0098260956
0.0098267088
0.0098267088
0.0098260956
0.009825014
0.0098238582
0.0098227103
0.0098213857
0.0098198353
0.0098194219
0.0098220899
0.0098358811
0.0098757412
0.0099823196
0.01024459
0.011005483
0.018474362
0.020203612
0.011662289
0.010731141
0.010405771
0.010264148
0.010205986
0.010183088
0.010176147
0.010174639
0.010175439
0.010176561
0.010177764
0.010179103
0.010180391
0.010181138
0.010181138
0.010180391
0.010179103
0.010177764
0.010176561
0.010175439
0.010174639
0.010176147
0.010183088
0.010205986
0.010264148
0.010405771
0.010731141
0.01166229
0.020203619
0.022182038
0.012412162
0.011274837
0.010874234
0.01069056
0.010609994
0.010575749
0.010563377
0.010559375
0.010559161
0.010559971
0.010561202
0.010562739
0.010564266
0.01056517
0.01056517
0.010564266
0.010562739
0.010561202
0.010559971
0.010559161
0.010559375
0.010563377
0.010575749
0.010609994
0.01069056
0.010874234
0.011274837
0.012412163
0.022182045
0.024443341
0.013268248
0.011883473
0.011393909
0.011160264
0.011052565
0.01100434
0.010985153
0.01097796
0.010976399
0.010976756
0.010977972
0.01097972
0.010981516
0.010982598
0.010982598
0.010981516
0.01097972
0.010977972
0.010976756
0.010976399
0.01097796
0.010985153
0.01100434
0.011052565
0.011160264
0.011393909
0.011883473
0.013268248
0.02444335
0.027025037
0.014245008
0.012565602
0.01197166
0.011679163
0.01153893
0.01147366
0.011446015
0.011434788
0.011431472
0.011431191
0.01143233
0.01143429
0.011436384
0.011437665
0.011437665
0.011436384
0.01143429
0.01143233
0.011431191
0.011431472
0.011434788
0.011446015
0.01147366
0.01153893
0.011679163
0.01197166
0.012565602
0.014245008
0.027025047
0.029968615
0.015358292
0.013330549
0.01261502
0.012253804
0.012074917
0.011989061
0.011951028
0.011934759
0.011929185
0.011928033
0.011929006
0.011931171
0.011933584
0.011935085
0.011935085
0.011933584
0.011931171
0.011929006
0.011928033
0.011929185
0.011934759
0.011951028
0.011989061
0.012074917
0.012253804
0.01261502
0.013330549
0.015358293
0.029968626
0.033319966
0.016625427
0.014188443
0.013332213
0.0128914
0.012666989
0.012556493
0.012505823
0.012483313
0.012474872
0.012472552
0.012473241
0.012475586
0.012478334
0.012480071
0.012480071
0.012478334
0.012475586
0.012473241
0.012472552
0.012474872
0.012483313
0.012505823
0.012556492
0.012666989
0.0128914
0.013332213
0.014188442
0.016625428
0.033319978
0.037129777
0.018065308
0.015150226
0.014132157
0.013599846
0.013322262
0.013182518
0.01311661
0.013086449
0.013074404
0.013070552
0.013070798
0.013073278
0.013076367
0.013078353
0.013078353
0.013076367
0.013073278
0.013070798
0.013070552
0.013074404
0.013086449
0.01311661
0.013182518
0.013322262
0.013599846
0.014132157
0.015150225
0.018065309
0.037129792
0.041453927
0.019700184
0.016227674
0.015024452
0.014387717
0.014048515
0.013874331
0.013790197
0.013750737
0.01373421
0.013728378
0.013727976
0.013730519
0.01373394
0.013736182
0.013736182
0.01373394
0.013730519
0.013727976
0.013728378
0.01373421
0.013750737
0.013790196
0.013874331
0.014048515
0.014387717
0.015024452
0.016227673
0.019700185
0.041453943
0.046353946
0.021555872
0.017433434
0.016019391
0.015264282
0.01485421
0.01463978
0.014534013
0.014483343
0.014461296
0.014452942
0.014451629
0.014454131
0.014457858
0.014460356
0.014460356
0.014457858
0.014454131
0.014451629
0.014452942
0.014461296
0.014483343
0.014534013
0.01463978
0.01485421
0.015264282
0.01601939
0.017433434
0.021555873
0.046353965
0.051897279
0.023656307
0.01878098
0.017127925
0.016239483
0.015748484
0.015487367
0.015356116
0.015292035
0.01526325
0.01525172
0.015249169
0.015251486
0.015255473
0.015258216
0.015258216
0.015255473
0.015251486
0.015249169
0.01525172
0.01526325
0.015292035
0.015356116
0.015487367
0.015748483
0.016239483
0.017127925
0.018780979
0.023656308
0.0518973
0.058157629
0.02602701
0.020284576
0.018361627
0.017323907
0.016741134
0.016426236
0.016265176
0.016185168
0.016148224
0.016132742
0.016128548
0.016130492
0.016134666
0.016137634
0.016137634
0.016134666
0.016130492
0.016128548
0.016132742
0.016148224
0.016185168
0.016265176
0.016426236
0.016741134
0.017323907
0.018361626
0.020284576
0.026027011
0.058157653
0.065215026
0.02869571
0.021959324
0.019732692
0.018528772
0.017842609
0.01746617
0.01727048
0.017171691
0.017124949
0.017104598
0.01709827
0.0170996
0.01710386
0.017107014
0.017107014
0.01710386
0.0170996
0.01709827
0.017104598
0.017124949
0.01717169
0.01727048
0.01746617
0.017842609
0.018528771
0.019732692
0.021959323
0.028695712
0.065215053
0.073154232
0.03169259
0.02382112
0.021253918
0.019865891
0.019063979
0.018617581
0.018381931
0.018261147
0.018202729
0.018176439
0.018167391
0.018167806
0.018172015
0.018175304
0.018175304
0.018172015
0.018167806
0.018167391
0.018176439
0.018202729
0.018261147
0.018381931
0.018617581
0.019063979
0.019865891
0.021253917
0.02382112
0.031692592
0.073154264
0.08206738
0.035050609
0.02588667
0.022938634
0.021347643
0.020416919
0.019891502
0.019610037
0.019463666
0.019391436
0.019357968
0.019345503
0.019344637
0.019348618
0.019351971
0.019351971
0.019348618
0.019344637
0.019345503
0.019357968
0.019391435
0.019463666
0.019610037
0.019891501
0.020416919
0.021347643
0.022938634
0.025886669
0.035050612
0.082067416
0.092051775
0.038805964
0.028173609
0.024800689
0.022986964
0.021913707
0.021299575
0.020965906
0.020789956
0.0207015
0.02065943
0.020642734
0.020640141
0.020643674
0.020646997
0.020646997
0.020643674
0.020640141
0.020642734
0.02065943
0.020701499
0.020789956
0.020965905
0.021299575
0.021913706
0.022986963
0.024800689
0.028173609
0.038805967
0.092051817
0.10320827
0.042998538
0.03070052
0.026854403
0.024797269
0.023567157
0.022853992
0.022461186
0.022251255
0.022143863
0.022091568
0.022069692
0.022064844
0.022067657
0.022070835
0.022070835
0.022067657
0.022064844
0.022069692
0.022091568
0.022143863
0.022251254
0.022461185
0.022853991
0.023567157
0.024797268
0.026854402
0.03070052
0.042998542
0.10320832
0.1156388
0.047672392
0.033486886
0.029114497
0.026792356
0.025390532
0.024567424
0.024108012
0.023859271
0.023729929
0.023665571
0.023637422
0.023629699
0.023631463
0.023634354
0.023634354
0.023631463
0.023629699
0.023637422
0.02366557
0.023729929
0.023859271
0.024108011
0.024567424
0.025390532
0.026792355
0.029114496
0.033486885
0.047672397
0.11563886
0.12944291
0.052876413
0.036552982
0.031596066
0.028986351
0.027397505
0.026452997
0.025918977
0.025626167
0.025471537
0.025393052
0.025357388
0.025346067
0.025346395
0.025348825
0.025348825
0.025346395
0.025346067
0.025357387
0.025393052
0.025471537
0.025626167
0.025918976
0.026452996
0.027397504
0.028986351
0.031596065
0.036552981
0.052876419
0.12944297
0.14471314
0.058664739
0.039920107
0.034314506
0.031393641
0.02960208
0.028524211
0.02790707
0.027564501
0.027380916
0.027286006
0.027241416
0.027225669
0.027224107
0.027225874
0.027225874
0.027224107
0.027225669
0.027241416
0.027286006
0.027380916
0.0275645