/*--------------------------------*- C++ -*----------------------------------*\
  =========                 |
  \\      /  F ield         | OpenFOAM: The Open Source CFD Toolbox
   \\    /   O peration     | Website:  https://openfoam.org
    \\  /    A nd           | Version:  8
     \\/     M anipulation  |
\*---------------------------------------------------------------------------*/
/*   Windows 32 and 64 bit porting by blueCAPE: http://www.bluecape.com.pt   *\
|  Based on Windows porting (2.0.x v4) by Symscape: http://www.symscape.com   |
\*---------------------------------------------------------------------------*/
FoamFile
{
    version     2.0;
    format      ascii;
    class       volScalarField;
    location    "60";
    object      nut;
}
// * * * * * * * * * * * * * * * * * * * * * * * * * * * * * * * * * * * * * //

dimensions      [0 2 -1 0 0 0 0];

internalField   nonuniform List<scalar> 
283500
(
0.034780549
0.034908697
0.03495063
0.034959175
0.034965082
0.034969414
0.034972755
0.034975308
0.034977198
0.034978566
0.034979521
0.03498015
0.034980532
0.034980773
0.034980907
0.034980907
0.034980773
0.034980532
0.03498015
0.034979521
0.034978566
0.034977198
0.034975308
0.034972755
0.034969414
0.034965082
0.034959175
0.03495063
0.034908697
0.034780549
0.03409247
0.034471523
0.034585843
0.034609715
0.034625656
0.034637249
0.034646147
0.034652935
0.034657968
0.034661613
0.034664161
0.034665839
0.03466686
0.0346675
0.034667857
0.034667857
0.0346675
0.03466686
0.034665839
0.034664161
0.034661613
0.034657968
0.034652935
0.034646147
0.034637249
0.034625656
0.034609715
0.034585843
0.034471523
0.03409247
0.033130464
0.033860519
0.034072351
0.034117431
0.034146419
0.034167289
0.034183216
0.034195338
0.034204324
0.034210831
0.034215383
0.034218382
0.034220206
0.034221348
0.034221982
0.034221982
0.034221348
0.034220206
0.034218382
0.034215383
0.034210831
0.034204324
0.034195338
0.034183216
0.034167289
0.034146419
0.034117431
0.034072351
0.033860519
0.033130464
0.031966895
0.033105984
0.033435265
0.033506713
0.033551131
0.033582775
0.033606744
0.033624904
0.033638354
0.033648098
0.033654913
0.033659404
0.033662135
0.033663842
0.033664788
0.033664788
0.033663842
0.033662135
0.033659404
0.033654913
0.033648098
0.033638354
0.033624904
0.033606744
0.033582775
0.033551131
0.033506713
0.033435265
0.033105984
0.031966895
0.030677836
0.03223926
0.032699379
0.032800804
0.032862378
0.032905831
0.032938489
0.032963108
0.032981309
0.032994479
0.033003688
0.033009757
0.03301345
0.033015754
0.033017028
0.033017028
0.033015754
0.03301345
0.033009757
0.033003688
0.032994479
0.032981309
0.032963108
0.032938489
0.032905831
0.032862378
0.032800804
0.032699379
0.03223926
0.030677836
0.029330267
0.031292274
0.031889715
0.032023353
0.03210297
0.032158616
0.032200114
0.032231224
0.032254166
0.032270743
0.032282326
0.032289953
0.032294589
0.032297476
0.032299071
0.032299071
0.032297476
0.032294589
0.032289953
0.032282326
0.032270743
0.032254166
0.032231224
0.032200114
0.032158616
0.03210297
0.032023353
0.031889715
0.031292274
0.029330267
0.027976871
0.030295163
0.031030187
0.031197123
0.031294926
0.031362616
0.031412703
0.031450027
0.031477467
0.031497251
0.031511059
0.031520138
0.031525647
0.031529073
0.031530965
0.031530965
0.031529073
0.031525647
0.031520138
0.031511059
0.031497251
0.031477467
0.031450027
0.031412703
0.031362616
0.031294926
0.031197123
0.031030187
0.030295163
0.02797687
0.02665527
0.029274353
0.030142238
0.030342674
0.030458255
0.030537454
0.030595595
0.030638638
0.030670167
0.030692841
0.030708636
0.030719
0.030725274
0.03072917
0.030731322
0.030731322
0.03072917
0.030725274
0.030719
0.030708636
0.030692841
0.030670167
0.030638638
0.030595595
0.030537454
0.030458255
0.030342674
0.030142238
0.029274353
0.026655269
0.025389841
0.028251576
0.029244042
0.02947755
0.029610141
0.029700066
0.02976555
0.029813695
0.029848809
0.029873983
0.029891478
0.029902927
0.029909837
0.02991412
0.029916488
0.029916488
0.02991412
0.029909837
0.029902927
0.029891478
0.029873983
0.029848809
0.029813695
0.02976555
0.029700066
0.029610141
0.02947755
0.029244042
0.028251576
0.025389841
0.024194522
0.027243689
0.028350262
0.028616003
0.028764641
0.028864385
0.028936419
0.028988988
0.029027145
0.0290544
0.029073285
0.029085604
0.02909301
0.029097593
0.02910013
0.02910013
0.029097593
0.02909301
0.029085604
0.029073285
0.0290544
0.029027145
0.028988988
0.028936419
0.028864385
0.028764641
0.028616003
0.028350262
0.027243689
0.024194521
0.023075614
0.026263033
0.027472184
0.027769087
0.027932748
0.028041372
0.028119146
0.028175461
0.028216114
0.028245031
0.028264997
0.02827797
0.028285734
0.028290529
0.028293189
0.028293189
0.028290529
0.028285734
0.02827797
0.028264997
0.028245031
0.028216114
0.028175461
0.028119146
0.028041372
0.027932748
0.027769087
0.027472184
0.026263033
0.023075614
0.022034163
0.025318043
0.026618084
0.02694498
0.027122665
0.027239269
0.027322009
0.027381421
0.027424049
0.027454226
0.027474975
0.027488395
0.027496384
0.027501307
0.027504043
0.027504043
0.027501307
0.027496384
0.027488395
0.027474975
0.027454226
0.027424049
0.027381421
0.027322009
0.027239269
0.027122665
0.02694498
0.026618084
0.025318043
0.022034162
0.021067761
0.024413955
0.025793677
0.026149403
0.026340198
0.026463964
0.026550957
0.026612872
0.026656993
0.026688057
0.026709312
0.026722984
0.026731073
0.026736044
0.026738814
0.026738814
0.026736044
0.026731073
0.026722984
0.026709312
0.026688057
0.026656993
0.026612872
0.026550957
0.026463964
0.026340198
0.026149403
0.025793677
0.024413955
0.02106776
0.02017183
0.023553494
0.025002586
0.025386057
0.025589166
0.025719379
0.025809996
0.025873885
0.025919065
0.025950677
0.025972183
0.025985927
0.025994
0.025998945
0.026001711
0.026001711
0.025998945
0.025994
0.025985927
0.025972183
0.025950677
0.025919065
0.025873885
0.025809996
0.025719379
0.025589166
0.025386057
0.025002586
0.023553493
0.02017183
0.019340512
0.022737472
0.024246777
0.024657036
0.024871797
0.025007861
0.025101561
0.025166964
0.025212821
0.025244677
0.025266203
0.025279857
0.025287807
0.025292658
0.025295381
0.025295381
0.025292658
0.025287807
0.025279857
0.025266203
0.025244677
0.025212821
0.025166964
0.025101561
0.025007861
0.024871797
0.024657036
0.024246777
0.022737472
0.019340511
0.018567377
0.021965296
0.023526949
0.023963196
0.024189081
0.024330516
0.024426849
0.024493379
0.024539581
0.024571412
0.024592753
0.024606167
0.024613895
0.024618588
0.024621234
0.024621234
0.024618588
0.024613895
0.024606167
0.024592753
0.024571412
0.024539581
0.024493379
0.024426849
0.024330516
0.024189081
0.023963196
0.023526949
0.021965295
0.018567376
0.017846089
0.021235384
0.022842848
0.02330445
0.023541064
0.023687504
0.023786104
0.023853444
0.023899708
0.023931282
0.023952253
0.023965292
0.023972708
0.023977185
0.023979723
0.023979723
0.023977185
0.023972708
0.023965292
0.023952253
0.023931282
0.023899708
0.023853444
0.023786104
0.023687504
0.023541064
0.02330445
0.022842848
0.021235384
0.017846088
0.01717086
0.020545509
0.022193524
0.022680024
0.022927091
0.023078275
0.02317886
0.023246755
0.023292848
0.023323963
0.0233444
0.023356943
0.023363964
0.02336817
0.023370569
0.023370569
0.02336817
0.023363964
0.023356943
0.0233444
0.023323963
0.023292848
0.023246755
0.02317886
0.023078275
0.022927091
0.022680024
0.022193524
0.020545508
0.017170859
0.016536673
0.01989305
0.02157752
0.022088641
0.022345993
0.022501757
0.022604119
0.022672375
0.022718105
0.022748592
0.022768353
0.02278029
0.022786838
0.022790724
0.022792957
0.022792957
0.022790724
0.022786838
0.02278029
0.022768353
0.022748592
0.022718105
0.022672375
0.022604118
0.022501757
0.022345993
0.022088641
0.02157752
0.01989305
0.016536672
0.015939342
0.01927519
0.020993026
0.02152867
0.021796234
0.0219565
0.022060497
0.022128974
0.02217419
0.022203909
0.02222287
0.022234103
0.02224011
0.022243628
0.022245668
0.022245668
0.022243628
0.02224011
0.022234103
0.02222287
0.022203909
0.02217419
0.022128974
0.022060497
0.0219565
0.021796234
0.02152867
0.020993026
0.01927519
0.015939341
0.015375458
0.018689043
0.02043799
0.02099823
0.021276022
0.021440781
0.021546333
0.021614939
0.021659528
0.021688367
0.021706424
0.021716866
0.021722267
0.021725376
0.021727199
0.021727199
0.021725376
0.021722267
0.021716866
0.021706424
0.021688367
0.021659528
0.021614939
0.021546333
0.021440781
0.021276022
0.02099823
0.02043799
0.018689043
0.015375458
0.014842261
0.01813175
0.019910197
0.020495272
0.020783384
0.020952684
0.021059765
0.021128453
0.021172338
0.02120021
0.021217276
0.021226854
0.021231593
0.021234252
0.021235836
0.021235836
0.021234252
0.021231593
0.021226854
0.021217276
0.02120021
0.021172338
0.021128453
0.021059765
0.020952684
0.020783384
0.020495272
0.019910197
0.018131749
0.01484226
0.014337484
0.017600532
0.019407336
0.020017633
0.020316234
0.02049017
0.020598791
0.020667559
0.020710693
0.020737537
0.020753544
0.020762195
0.020766222
0.020768398
0.020769722
0.020769722
0.020768398
0.020766222
0.020762195
0.020753544
0.020737537
0.020710693
0.020667559
0.020598791
0.02049017
0.020316234
0.020017633
0.019407336
0.017600532
0.014337484
0.013859207
0.017092732
0.018927036
0.01956308
0.019872406
0.020051111
0.020161317
0.020230194
0.020272563
0.020298343
0.020313241
0.020320916
0.020324188
0.020325849
0.020326896
0.020326896
0.020325849
0.020324188
0.020320916
0.020313241
0.020298343
0.020272563
0.020230194
0.020161317
0.020051111
0.019872406
0.01956308
0.018927036
0.017092732
0.013859207
0.013405725
0.016605825
0.018466898
0.01912933
0.01944969
0.019633323
0.019745182
0.019814229
0.019855847
0.019880548
0.019894305
0.019900968
0.019903451
0.019904568
0.019905321
0.019905321
0.019904568
0.019903451
0.019900968
0.019894305
0.019880548
0.019855847
0.019814229
0.019745182
0.019633323
0.01944969
0.01912933
0.018466898
0.016605825
0.013405724
0.01297545
0.016137449
0.01802452
0.018714076
0.019045845
0.019234592
0.019348187
0.019417482
0.019458388
0.019482023
0.019494625
0.019500254
0.019501919
0.019502467
0.01950291
0.01950291
0.019502467
0.019501919
0.019500254
0.019494625
0.019482023
0.019458388
0.019417482
0.019348187
0.019234592
0.019045845
0.018714076
0.01802452
0.016137449
0.012975449
0.01256685
0.015685425
0.017597538
0.018314999
0.018658621
0.018852685
0.018968104
0.019037741
0.019077996
0.019100599
0.019112052
0.019116642
0.019117469
0.019117424
0.019117543
0.019117543
0.019117424
0.019117469
0.019116642
0.019112052
0.019100599
0.019077996
0.019037741
0.018968104
0.018852685
0.018658621
0.018314999
0.017597538
0.015685424
0.012566849
0.012178393
0.015247778
0.017183676
0.017929805
0.018285779
0.018485374
0.018602706
0.01867278
0.018712455
0.018734081
0.018744412
0.018747973
0.018747951
0.018747294
0.018747077
0.018747077
0.018747294
0.018747951
0.018747973
0.018744412
0.018734081
0.018712455
0.01867278
0.018602706
0.018485374
0.018285779
0.017929805
0.017183676
0.015247778
0.012178392
0.011808526
0.014822748
0.016780794
0.017556273
0.017925132
0.018130474
0.018249797
0.018320395
0.018359565
0.018380283
0.018389537
0.018392094
0.018391223
0.018389937
0.018389375
0.018389375
0.018389937
0.018391223
0.018392094
0.018389537
0.018380283
0.018359565
0.018320395
0.018249797
0.018130474
0.017925132
0.017556273
0.016780794
0.014822748
0.011808526
0.011455683
0.014408785
0.016386934
0.017192304
0.017574592
0.017785891
0.017907267
0.017978459
0.018017192
0.018037076
0.01804531
0.018046905
0.018045194
0.018043266
0.018042351
0.018042351
0.018043266
0.018045194
0.018046905
0.01804531
0.018037076
0.018017192
0.017978459
0.017907267
0.017785891
0.017574592
0.017192304
0.016386934
0.014408785
0.011455683
0.011118301
0.014004551
0.01600036
0.016835959
0.017232212
0.017449663
0.017573134
0.017644969
0.017683322
0.017702445
0.017709728
0.017710413
0.017707881
0.0177053
0.017704025
0.017704025
0.0177053
0.017707881
0.017710413
0.017709728
0.017702445
0.017683322
0.017644969
0.017573134
0.017449663
0.017232212
0.016835959
0.01600036
0.014004551
0.011118301
0.010794847
0.013608902
0.015619586
0.016485505
0.016896222
0.017119997
0.017245588
0.01731809
0.017356104
0.017374537
0.01738094
0.017380777
0.017377456
0.017374216
0.017372577
0.017372577
0.017374216
0.017377456
0.017380777
0.01738094
0.017374537
0.017356104
0.01731809
0.017245588
0.017119997
0.016896222
0.016485505
0.015619586
0.013608902
0.010794847
0.010483847
0.013220878
0.015243398
0.016139449
0.016565072
0.016795319
0.016923033
0.016996199
0.017033898
0.017051703
0.0170573
0.01705636
0.01705229
0.017048391
0.01704639
0.01704639
0.017048391
0.01705229
0.01705636
0.0170573
0.017051703
0.017033898
0.016996199
0.016923033
0.016795319
0.016565072
0.016139449
0.015243398
0.013220878
0.010483847
0.010183916
0.012839678
0.014870852
0.015796559
0.016237452
0.016474287
0.016604111
0.016677916
0.016715308
0.016732534
0.016737399
0.016735759
0.016730987
0.016726439
0.016724078
0.016724078
0.016726439
0.016730987
0.016735759
0.016737399
0.016732534
0.016715308
0.016677916
0.016604111
0.016474287
0.016237452
0.015796559
0.014870852
0.012839678
0.010183915
0.0098937888
0.012464647
0.014501277
0.015455876
0.015912312
0.01615582
0.016287731
0.016362128
0.016399204
0.016415892
0.016420095
0.016417831
0.016412417
0.016407233
0.016404516
0.016404516
0.016407233
0.016412417
0.016417831
0.016420095
0.016415892
0.016399204
0.016362128
0.016287731
0.01615582
0.015912312
0.015455876
0.014501277
0.012464647
0.0098937886
0.0096123699
0.012095265
0.014134259
0.015116723
0.015588871
0.015839108
0.015973076
0.016048004
0.016084744
0.016100923
0.016104528
0.01610172
0.016095724
0.016089928
0.016086856
0.016086856
0.016089928
0.016095724
0.01610172
0.016104528
0.016100923
0.016084744
0.016048004
0.015973076
0.015839108
0.015588871
0.015116723
0.014134258
0.012095265
0.0096123698
0.0093387554
0.011731133
0.013769607
0.014778683
0.015266608
0.0155236
0.015659595
0.015734987
0.015771363
0.015787053
0.015790118
0.015786842
0.015780329
0.015773945
0.015770523
0.015770523
0.015773945
0.015780329
0.015786842
0.015790118
0.015787053
0.015771363
0.015734987
0.015659595
0.0155236
0.015266608
0.014778683
0.013769607
0.011731133
0.0093387553
0.0090722922
0.01137197
0.013407337
0.014441589
0.014945245
0.015208991
0.01534699
0.015422779
0.015458766
0.01547398
0.015476554
0.015472878
0.015465912
0.015458971
0.015455201
0.015455201
0.015458971
0.015465913
0.015472878
0.015476554
0.01547398
0.015458766
0.015422779
0.01534699
0.015208991
0.014945245
0.014441589
0.013407336
0.011371969
0.0090722922
0.0088126077
0.011017618
0.013047631
0.01410549
0.01462473
0.014895206
0.015035196
0.015111323
0.015146901
0.015161648
0.015163773
0.015159759
0.015152401
0.015144935
0.015140822
0.015140822
0.015144935
0.015152401
0.015159759
0.015163773
0.015161648
0.015146901
0.015111323
0.015035196
0.014895206
0.01462473
0.01410549
0.013047631
0.011017618
0.0088126077
0.0085596466
0.010668054
0.012690811
0.013770616
0.014305198
0.014582362
0.014724346
0.014800763
0.01483592
0.014850209
0.014851926
0.014847626
0.014839929
0.014831972
0.014827522
0.014827522
0.014831972
0.014839929
0.014847626
0.014851926
0.014850209
0.01483592
0.014800763
0.014724346
0.014582362
0.014305198
0.013770616
0.012690811
0.010668053
0.0085596466
0.0083136972
0.010323398
0.012337318
0.013437353
0.013986947
0.014270745
0.014414739
0.014491416
0.014526152
0.014539995
0.01454134
0.0145368
0.014528812
0.014520399
0.014515618
0.014515618
0.014520399
0.014528812
0.0145368
0.01454134
0.014539995
0.014526152
0.014491416
0.014414739
0.014270745
0.013986947
0.013437353
0.012337318
0.010323397
0.0083136972
0.0080754277
0.0099839477
0.011987697
0.013106216
0.01367041
0.013960778
0.014106815
0.014183739
0.014218069
0.014231481
0.014232488
0.014227748
0.014219512
0.014210677
0.014205573
0.014205573
0.014210677
0.014219512
0.014227748
0.014232488
0.014231481
0.014218069
0.014183739
0.014106816
0.013960778
0.01367041
0.013106216
0.011987696
0.0099839475
0.0080754278
0.007845888
0.0096501996
0.011642592
0.012777822
0.013356123
0.01365298
0.013801109
0.013878286
0.013912244
0.013925248
0.013925951
0.013921043
0.013912597
0.013903375
0.01389796
0.01389796
0.013903375
0.013912597
0.013921044
0.013925951
0.013925248
0.013912244
0.013878287
0.013801109
0.01365298
0.013356123
0.012777822
0.011642592
0.0096501994
0.0078458882
0.0076265186
0.009322878
0.011302744
0.012452877
0.013044708
0.013347964
0.013498241
0.013575699
0.013609325
0.013621956
0.013622391
0.013617344
0.01360872
0.013599147
0.013593433
0.013593433
0.013599147
0.01360872
0.013617344
0.013622391
0.013621956
0.013609325
0.013575699
0.013498241
0.013347964
0.013044708
0.012452877
0.011302744
0.0093228777
0.0076265188
0.0074191461
0.0090029689
0.01096901
0.01213217
0.012736874
0.013046416
0.013198903
0.013276683
0.013310032
0.013322324
0.013322531
0.01331737
0.013308597
0.01329871
0.013292713
0.013292713
0.01329871
0.013308597
0.01331737
0.013322531
0.013322324
0.013310032
0.013276683
0.013198903
0.013046416
0.012736874
0.01213217
0.01096901
0.0090029687
0.0074191463
0.007225962
0.0086917063
0.010642359
0.011816574
0.012433393
0.012749075
0.012903833
0.01298199
0.013015125
0.013027118
0.013027133
0.013021884
0.013012989
0.013002822
0.012996563
0.012996563
0.013002822
0.013012989
0.013021884
0.013027133
0.013027118
0.013015125
0.01298199
0.012903833
0.012749075
0.012433393
0.011816574
0.010642359
0.008691706
0.0072259623
0.0070495016
0.0083905965
0.010323904
0.011507057
0.012135109
0.012456738
0.012613814
0.01269241
0.012725403
0.012737142
0.012737001
0.012731688
0.012722695
0.012712287
0.012705787
0.012705787
0.012712287
0.012722695
0.012731688
0.012737001
0.012737142
0.012725403
0.01269241
0.012613814
0.012456738
0.012135109
0.011507057
0.010323904
0.0083905962
0.007049502
0.0068926139
0.0081014357
0.010014924
0.011204695
0.011842943
0.012170262
0.012329681
0.01240878
0.012441706
0.012453242
0.012452978
0.012447621
0.012438557
0.012427946
0.012421229
0.012421229
0.012427946
0.012438557
0.012447621
0.012452978
0.012453242
0.012441706
0.01240878
0.012329681
0.012170262
0.011842943
0.011204695
0.010014924
0.0081014355
0.0068926143
0.0067584173
0.0078263031
0.0097168704
0.010910683
0.011557905
0.01189057
0.012052322
0.012131981
0.012164916
0.012176301
0.012175952
0.012170567
0.012161456
0.012150679
0.012143773
0.012143773
0.012150679
0.012161456
0.012170567
0.012175952
0.012176301
0.012164916
0.012131981
0.012052322
0.01189057
0.011557905
0.010910683
0.0097168704
0.0078263029
0.0067584177
0.0066502619
0.0075675551
0.0094313809
0.01062636
0.011281109
0.011618664
0.011782691
0.011862953
0.011895968
0.011907258
0.011906863
0.011901469
0.011892332
0.01188143
0.011874364
0.011874364
0.01188143
0.011892332
0.011901469
0.011906863
0.011907258
0.011895969
0.011862953
0.011782691
0.011618664
0.011281109
0.01062636
0.0094313808
0.0075675549
0.0066502624
0.0065716905
0.0073277999
0.0091602895
0.010353222
0.011013796
0.011355649
0.011521826
0.011602711
0.011635871
0.011647119
0.011646718
0.011641337
0.011632197
0.011621212
0.011614018
0.011614018
0.011621212
0.011632197
0.011641337
0.011646718
0.011647119
0.011635871
0.011602711
0.011521826
0.011355649
0.011013796
0.010353222
0.0091602895
0.0073277997
0.0065716911
0.0065264014
0.0071097994
0.0089056166
0.010092936
0.010757346
0.01110274
0.011270859
0.011352356
0.01138571
0.011396968
0.011396602
0.011391258
0.011382144
0.011371118
0.011363829
0.011363829
0.011371118
0.011382144
0.011391258
0.011396602
0.011396968
0.01138571
0.011352356
0.011270859
0.01110274
0.010757346
0.010092936
0.0089056165
0.0071097992
0.0065264021
0.0065182376
0.0069164411
0.0086695577
0.0098473418
0.010513291
0.010861281
0.011031039
0.011113094
0.011146672
0.011157986
0.011157693
0.011152415
0.011143356
0.011132335
0.011124988
0.011124988
0.011132335
0.011143356
0.011152415
0.011157693
0.011157986
0.011146672
0.011113094
0.011031039
0.010861281
0.010513291
0.0098473418
0.0086695576
0.0069164409
0.0065182383
0.0065511928
0.0067507105
0.0084544645
0.0096184599
0.010283336
0.010632765
0.010803743
0.010886249
0.010920057
0.010931463
0.010931282
0.010926098
0.010917129
0.01090616
0.010898793
0.010898793
0.01090616
0.010917129
0.010926098
0.010931282
0.010931463
0.010920057
0.010886249
0.010803743
0.010632765
0.010283336
0.0096184599
0.0084544644
0.0067507103
0.0065511936
0.0066294344
0.0066156269
0.0082628133
0.0094084828
0.010069355
0.010418839
0.010590488
0.010673274
0.010707286
0.010718808
0.010718772
0.010713714
0.010704873
0.010694005
0.010686657
0.010686657
0.010694005
0.010704873
0.010713714
0.010718772
0.010718808
0.010707286
0.010673274
0.010590488
0.010418839
0.010069355
0.0094084828
0.0082628133
0.0066156268
0.0066294353
0.0067573494
0.0065142168
0.0080971769
0.0092197639
0.0098734004
0.010221311
0.010392937
0.010475759
0.010509913
0.010521558
0.010521694
0.010516794
0.01050812
0.010497406
0.010490116
0.010490116
0.010497406
0.01050812
0.010516794
0.010521694
0.010521558
0.010509913
0.010475759
0.010392937
0.010221311
0.0098734004
0.0092197639
0.0080971769
0.0065142167
0.0067573504
0.0069396018
0.006449505
0.0079602016
0.0090547997
0.0096976973
0.010042162
0.010212912
0.01029544
0.010329629
0.010341386
0.010341714
0.010337001
0.010328534
0.010318025
0.010310833
0.010310833
0.010318025
0.010328535
0.010337001
0.010341714
0.010341386
0.010329629
0.01029544
0.010212912
0.010042162
0.0096976974
0.0090547997
0.0079602016
0.0064495049
0.006939603
0.0071812044
0.0064245275
0.0078545756
0.0089162043
0.0095446308
0.0098835312
0.010052387
0.010134196
0.010168265
0.010180096
0.010180623
0.010176125
0.010167907
0.010157654
0.010150599
0.010150599
0.010157654
0.010167907
0.010176125
0.010180623
0.010180096
0.010168265
0.010134196
0.010052387
0.0098835312
0.0095446309
0.0089162043
0.0078545756
0.0064245274
0.0071812057
0.0074875909
0.0064423611
0.007783018
0.0088066916
0.0094167363
0.0097477196
0.0099134898
0.0099940522
0.010027787
0.010039627
0.010040347
0.010036084
0.010028154
0.010018206
0.010011326
0.010011326
0.010018206
0.010028154
0.010036084
0.010040347
0.010039627
0.010027787
0.0099940523
0.0099134898
0.0097477197
0.0094167364
0.0088066916
0.007783018
0.006442361
0.0074875923
0.0078646817
0.0065061727
0.0077482763
0.0087290577
0.0093166862
0.0096371811
0.0097984979
0.0098771743
0.0099102979
0.009922046
0.009922937
0.0099189231
0.0099113161
0.0099017206
0.0098950504
0.0098950504
0.0099017206
0.0099113161
0.0099189231
0.0099229371
0.0099220461
0.009910298
0.0098771744
0.009798498
0.0096371811
0.0093166863
0.0087290577
0.0077482763
0.0065061726
0.0078646833
0.0083189244
0.0066192826
0.0077531324
0.0086861653
0.009247274
0.0095545108
0.00970983
0.0097858636
0.0098180294
0.0098295468
0.0098305638
0.009826802
0.0098195481
0.0098103465
0.0098039181
0.0098039181
0.0098103465
0.0098195481
0.009826802
0.0098305638
0.0098295468
0.0098180294
0.0097858637
0.00970983
0.0095545109
0.009247274
0.0086861653
0.0077531323
0.0066192826
0.0083189262
0.0088574077
0.0067852338
0.0078004209
0.0086809396
0.0092114038
0.0095024389
0.0096500415
0.0097225525
0.0097533374
0.009764441
0.0097655143
0.0097619951
0.0097551168
0.0097463444
0.0097401858
0.0097401858
0.0097463444
0.0097551168
0.0097619951
0.0097655144
0.009764441
0.0097533374
0.0097225525
0.0096500415
0.0095024389
0.0092114039
0.0086809396
0.0078004209
0.0067852338
0.0088574096
0.0094878787
0.0070078602
0.0078930586
0.008716369
0.0092120828
0.0094838223
0.0096218196
0.0096898006
0.0097186996
0.0097291566
0.009730188
0.0097268856
0.0097203953
0.0097120798
0.0097062141
0.0097062141
0.0097120798
0.0097203953
0.0097268857
0.009730188
0.0097291567
0.0097186997
0.0096898006
0.0096218197
0.0094838223
0.0092120828
0.008716369
0.0078930586
0.0070078602
0.0094878809
0.010218792
0.0072913535
0.0080340804
0.0087955139
0.0092524175
0.0095016405
0.0096279786
0.009690291
0.0097167114
0.0097262343
0.0097270923
0.0097239618
0.0097178596
0.0097100197
0.0097044648
0.0097044648
0.0097100197
0.0097178597
0.0097239618
0.0097270923
0.0097262343
0.0097167115
0.009690291
0.0096279787
0.0095016406
0.0092524176
0.0087955139
0.0080340803
0.0072913535
0.010218795
0.011059334
0.0076403245
0.0082266784
0.0089215229
0.0093356186
0.0095589968
0.0096714608
0.0097268309
0.0097500866
0.0097583272
0.009758844
0.0097558179
0.0097500895
0.0097427333
0.0097375008
0.0097375008
0.0097427333
0.0097500895
0.0097558179
0.009758844
0.0097583273
0.0097500867
0.0097268309
0.0096714609
0.0095589968
0.0093356186
0.0089215228
0.0082266783
0.0076403245
0.011059337
0.012019421
0.0080602472
0.0084742437
0.0090976519
0.0094650068
0.0096591209
0.0097553399
0.0098023549
0.0098216605
0.0098282052
0.0098281716
0.0098251565
0.00981977
0.009812894
0.0098079891
0.0098079891
0.0098128941
0.00981977
0.0098251565
0.0098281717
0.0098282052
0.0098216605
0.009802355
0.00975534
0.009659121
0.0094650068
0.0090976519
0.0084742436
0.0080602473
0.012019424
0.013109707
0.0085575007
0.0087804101
0.0093272906
0.009644027
0.0098053778
0.0098828282
0.0099199321
0.0099343965
0.0099387605
0.0099379219
0.0099347947
0.0099296989
0.0099232866
0.0099187071
0.0099187071
0.0099232866
0.0099296989
0.0099347948
0.0099379219
0.0099387606
0.0099343966
0.0099199321
0.0098828282
0.0098053779
0.009644027
0.0093272906
0.00878041
0.0085575008
0.01310971
0.014341515
0.0091382104
0.0091490745
0.0096139813
0.0098762608
0.010001277
0.010057285
0.010082774
0.010091395
0.010093016
0.010091067
0.010087672
0.010082794
0.010076815
0.010072551
0.010072551
0.010076815
0.010082794
0.010087672
0.010091067
0.010093017
0.010091395
0.010082775
0.010057285
0.010001277
0.0098762608
0.0096139812
0.0091490744
0.0091382106
0.014341518
0.015726771
0.0098089775
0.0095844144
0.0099614339
0.010165437
0.010250482
0.010282224
0.010294244
0.0102959
0.010294133
0.010290712
0.010286857
0.0102821
0.010276507
0.010272542
0.010272542
0.010276507
0.0102821
0.010286857
0.010290712
0.010294133
0.0102959
0.010294244
0.010282224
0.010250482
0.010165437
0.0099614338
0.0095844142
0.0098089777
0.015726776
0.017277887
0.010576951
0.010090914
0.010373551
0.010515449
0.010556821
0.010561325
0.010557863
0.010551309
0.010545419
0.010540106
0.010535558
0.010530798
0.01052553
0.010521836
0.010521836
0.01052553
0.010530798
0.010535558
0.010540106
0.010545419
0.010551309
0.010557863
0.010561325
0.010556821
0.010515449
0.010373551
0.010090914
0.010576951
0.017277892
0.019007375
0.011449858
0.010673369
0.010854443
0.010930364
0.010924297
0.010898446
0.010877333
0.010861191
0.010850349
0.010842657
0.010837141
0.010832227
0.010827203
0.010823746
0.010823746
0.010827203
0.010832227
0.010837141
0.010842657
0.010850349
0.010861191
0.010877333
0.010898446
0.010924297
0.010930363
0.010854442
0.010673369
0.011449858
0.019007381
0.020928057
0.012436027
0.011336889
0.01140842
0.011414429
0.011357102
0.011297638
0.011256543
0.011229301
0.011212573
0.011201946
0.011195139
0.011189889
0.011185009
0.011181744
0.011181744
0.011185009
0.011189889
0.011195139
0.011201946
0.011212573
0.011229301
0.011256543
0.011297638
0.011357102
0.011414429
0.01140842
0.011336888
0.012436027
0.020928063
0.023052574
0.013544427
0.012086931
0.012040007
0.011972088
0.011859625
0.011763153
0.01169958
0.011659583
0.01163593
0.011621735
0.011613262
0.011607459
0.011602604
0.011599475
0.011599475
0.011602604
0.011607459
0.011613262
0.011621735
0.01163593
0.011659583
0.01169958
0.011763153
0.011859625
0.011972088
0.012040007
0.012086931
0.013544428
0.023052581
0.025392969
0.014784687
0.012929297
0.012753926
0.012607964
0.012436446
0.012299439
0.012210727
0.012156172
0.012124441
0.012105964
0.012095395
0.012088786
0.012083813
0.012080756
0.012080756
0.012083813
0.012088786
0.012095395
0.012105964
0.012124441
0.012156172
0.012210727
0.012299439
0.012436446
0.012607964
0.012753926
0.012929297
0.014784687
0.025392977
0.027960165
0.016167079
0.013870109
0.013555083
0.013326836
0.013092318
0.012911124
0.012794449
0.012723385
0.012682304
0.012658745
0.01264559
0.012637883
0.012632625
0.012629563
0.012629563
0.012632625
0.012637883
0.01264559
0.012658745
0.012682304
0.012723385
0.012794449
0.012911124
0.013092317
0.013326835
0.013555082
0.013870109
0.01616708
0.027960173
0.030763363
0.017702538
0.014915786
0.014448554
0.014133623
0.013832152
0.013603016
0.013455397
0.01336572
0.013313894
0.013284364
0.01326807
0.013258929
0.013253195
0.013250038
0.013250038
0.013253195
0.013258929
0.01326807
0.013284364
0.013313894
0.01336572
0.013455397
0.013603016
0.013832152
0.014133623
0.014448554
0.014915785
0.017702539
0.030763372
0.033809343
0.019402587
0.016073064
0.01543956
0.015033367
0.014661004
0.014380079
0.014198385
0.014087842
0.014023752
0.013987267
0.013967213
0.01395626
0.013949831
0.013946478
0.013946478
0.013949831
0.01395626
0.013967213
0.013987267
0.014023752
0.014087842
0.014198385
0.014380079
0.014661004
0.015033367
0.01543956
0.016073063
0.019402588
0.033809353
0.037102031
0.021279207
0.017349003
0.016533436
0.016031187
0.015584029
0.015247408
0.015028376
0.014894567
0.014816568
0.014772048
0.014747545
0.014734353
0.01472698
0.014723315
0.014723315
0.01472698
0.014734353
0.014747545
0.014772048
0.014816568
0.014894567
0.015028376
0.015247408
0.015584029
0.016031187
0.016533436
0.017349003
0.021279208
0.037102042
0.04064153
0.023344692
0.018751021
0.017735626
0.017132263
0.016606465
0.016210216
0.015950466
0.015790852
0.015697175
0.01564344
0.015613727
0.01559782
0.015589225
0.015585119
0.015585119
0.015589225
0.01559782
0.015613727
0.01564344
0.015697175
0.015790852
0.015950466
0.016210216
0.016606465
0.017132263
0.017735625
0.01875102
0.023344693
0.040641542
0.044423312
0.025611377
0.020286893
0.019051656
0.018341793
0.017733593
0.017273789
0.016969846
0.016781756
0.016670506
0.016606279
0.01657052
0.016551371
0.016541245
0.016536552
0.016536552
0.016541245
0.016551371
0.01657052
0.016606279
0.016670506
0.016781756
0.016969846
0.017273789
0.017733592
0.018341793
0.019051655
0.020286893
0.025611379
0.044423324
0.048437801
0.028091124
0.02196475
0.020487106
0.019664945
0.018970681
0.01844344
0.018091749
0.017872393
0.017741559
0.017665463
0.017622747
0.017599777