/*--------------------------------*- C++ -*----------------------------------*\
| =========                 |                                                 |
| \\      /  F ield         | OpenFOAM: The Open Source CFD Toolbox           |
|  \\    /   O peration     | Version:  5                                     |
|   \\  /    A nd           | Web:      www.OpenFOAM.org                      |
|    \\/     M anipulation  |                                                 |
\*---------------------------------------------------------------------------*/
FoamFile
{
    version     2.0;
    format      ascii;
    class       volScalarField;
    object      alpha.water;
}
// * * * * * * * * * * * * * * * * * * * * * * * * * * * * * * * * * * * * * //

#include        "include/initialConditions"

dimensions      [0 0 0 0 0 0 0];

internalField   uniform 0;

boundaryField
{
#includeEtc "caseDicts/setConstraintTypes"

    inletWater
    {
      type            fixedValue;
      value           uniform 1;
    }

    outlet
    {
        type            inletOutlet;
        inletValue      uniform 0;
        value           uniform 0;
    }


    "(right|left|inletWall|bottom|interface2)"
    {
        type            zeroGradient;
    }

    lid
    {
        type            inletOutlet;
        inletValue      uniform 0;
        value           uniform 0;
    }
}

// ************************************************************************* //
