/*--------------------------------*- C++ -*----------------------------------*\
  =========                 |
  \\      /  F ield         | OpenFOAM: The Open Source CFD Toolbox
   \\    /   O peration     | Website:  https://openfoam.org
    \\  /    A nd           | Version:  8
     \\/     M anipulation  |
\*---------------------------------------------------------------------------*/
/*   Windows 32 and 64 bit porting by blueCAPE: http://www.bluecape.com.pt   *\
|  Based on Windows porting (2.0.x v4) by Symscape: http://www.symscape.com   |
\*---------------------------------------------------------------------------*/
FoamFile
{
    version     2.0;
    format      ascii;
    class       volScalarField;
    location    "90";
    object      epsilon;
}
// * * * * * * * * * * * * * * * * * * * * * * * * * * * * * * * * * * * * * //

dimensions      [0 2 -3 0 0 0 0];

internalField   nonuniform List<scalar> 
283500
(
4.4192336e-05
4.4046811e-05
4.4011308e-05
4.4005523e-05
4.4001456e-05
4.3999472e-05
4.399793e-05
4.3996974e-05
4.399623e-05
4.3995803e-05
4.3995469e-05
4.3995317e-05
4.3995222e-05
4.3995195e-05
4.3995161e-05
4.3995161e-05
4.3995195e-05
4.3995222e-05
4.3995317e-05
4.3995469e-05
4.3995803e-05
4.399623e-05
4.3996974e-05
4.399793e-05
4.3999472e-05
4.4001456e-05
4.4005523e-05
4.4011308e-05
4.4046811e-05
4.4192336e-05
4.4834037e-05
4.4402505e-05
4.43003e-05
4.4283374e-05
4.4272064e-05
4.4266552e-05
4.4262294e-05
4.4259685e-05
4.4257624e-05
4.425646e-05
4.425553e-05
4.4255117e-05
4.4254853e-05
4.4254783e-05
4.4254688e-05
4.4254688e-05
4.4254783e-05
4.4254853e-05
4.4255117e-05
4.425553e-05
4.425646e-05
4.4257624e-05
4.4259685e-05
4.4262294e-05
4.4266552e-05
4.4272064e-05
4.4283374e-05
4.43003e-05
4.4402505e-05
4.4834037e-05
4.5865605e-05
4.496806e-05
4.4766319e-05
4.4731852e-05
4.4710596e-05
4.4700395e-05
4.4692605e-05
4.4687865e-05
4.4684085e-05
4.4681978e-05
4.4680267e-05
4.4679523e-05
4.4679038e-05
4.467892e-05
4.4678744e-05
4.4678744e-05
4.467892e-05
4.4679038e-05
4.4679523e-05
4.4680267e-05
4.4681978e-05
4.4684085e-05
4.4687865e-05
4.4692605e-05
4.4700395e-05
4.4710596e-05
4.4731852e-05
4.4766319e-05
4.496806e-05
4.5865605e-05
4.7281632e-05
4.5746196e-05
4.540935e-05
4.5351016e-05
4.5317443e-05
4.5301366e-05
4.5289332e-05
4.5282072e-05
4.5276251e-05
4.5273032e-05
4.5270388e-05
4.5269254e-05
4.5268507e-05
4.5268336e-05
4.5268062e-05
4.5268062e-05
4.5268336e-05
4.5268507e-05
4.5269254e-05
4.5270388e-05
4.5273032e-05
4.5276251e-05
4.5282072e-05
4.5289332e-05
4.5301366e-05
4.5317443e-05
4.5351016e-05
4.540935e-05
4.5746196e-05
4.7281632e-05
4.905742e-05
4.6736631e-05
4.6227815e-05
4.6139543e-05
4.6091498e-05
4.6068523e-05
4.6051634e-05
4.6041482e-05
4.6033343e-05
4.6028891e-05
4.6025205e-05
4.6023648e-05
4.6022613e-05
4.6022391e-05
4.6022007e-05
4.6022007e-05
4.6022391e-05
4.6022613e-05
4.6023648e-05
4.6025205e-05
4.6028891e-05
4.6033343e-05
4.6041482e-05
4.6051634e-05
4.6068523e-05
4.6091498e-05
4.6139543e-05
4.6227815e-05
4.6736631e-05
4.9057421e-05
5.116382e-05
4.793509e-05
4.7217302e-05
4.7093212e-05
4.7028846e-05
4.6998245e-05
4.6976174e-05
4.6963053e-05
4.6952533e-05
4.6946827e-05
4.6942059e-05
4.6940092e-05
4.6938785e-05
4.6938536e-05
4.6938042e-05
4.6938042e-05
4.6938536e-05
4.6938785e-05
4.6940092e-05
4.6942059e-05
4.6946827e-05
4.6952533e-05
4.6963053e-05
4.6976174e-05
4.6998245e-05
4.7028846e-05
4.7093212e-05
4.7217302e-05
4.793509e-05
5.1163821e-05
5.3573528e-05
4.9335856e-05
4.8372328e-05
4.8206603e-05
4.8124284e-05
4.8085661e-05
4.8058267e-05
4.8042279e-05
4.8029465e-05
4.8022632e-05
4.8016841e-05
4.8014539e-05
4.8013006e-05
4.8012765e-05
4.801217e-05
4.801217e-05
4.8012765e-05
4.8013006e-05
4.8014539e-05
4.8016841e-05
4.8022632e-05
4.8029465e-05
4.8042279e-05
4.8058267e-05
4.8085661e-05
4.8124284e-05
4.8206603e-05
4.8372328e-05
4.9335856e-05
5.3573529e-05
5.6263878e-05
5.093305e-05
4.9687756e-05
4.9474033e-05
4.9372211e-05
4.9325401e-05
4.9292687e-05
4.9274055e-05
4.9259122e-05
4.9251363e-05
4.9244672e-05
4.9242155e-05
4.9240475e-05
4.9240299e-05
4.923962e-05
4.923962e-05
4.9240299e-05
4.9240475e-05
4.9242155e-05
4.9244672e-05
4.9251363e-05
4.9259122e-05
4.9274055e-05
4.9292687e-05
4.9325401e-05
4.9372211e-05
4.9474033e-05
4.9687756e-05
5.093305e-05
5.6263879e-05
5.9217758e-05
5.2721338e-05
5.1158963e-05
5.089012e-05
5.0767186e-05
5.0712113e-05
5.0674205e-05
5.065325e-05
5.0636448e-05
5.0628013e-05
5.0620599e-05
5.0618019e-05
5.0616298e-05
5.0616253e-05
5.0615518e-05
5.0615518e-05
5.0616253e-05
5.0616298e-05
5.0618019e-05
5.0620599e-05
5.0628013e-05
5.0636448e-05
5.065325e-05
5.0674205e-05
5.0712113e-05
5.0767186e-05
5.089012e-05
5.1158963e-05
5.2721339e-05
5.921776e-05
6.2424082e-05
5.4696572e-05
5.2782261e-05
5.2450323e-05
5.2304488e-05
5.2241066e-05
5.2198165e-05
5.2175281e-05
5.2156928e-05
5.2148113e-05
5.2140191e-05
5.2137731e-05
5.2136097e-05
5.2136263e-05
5.2135504e-05
5.2135504e-05
5.2136263e-05
5.2136097e-05
5.2137731e-05
5.2140191e-05
5.2148113e-05
5.2156928e-05
5.2175281e-05
5.2198165e-05
5.2241066e-05
5.2304488e-05
5.2450323e-05
5.2782261e-05
5.4696573e-05
6.2424084e-05
6.5877937e-05
5.685632e-05
5.455529e-05
5.4151332e-05
5.3980545e-05
5.3908601e-05
5.3860948e-05
5.3836577e-05
5.3817051e-05
5.3808201e-05
5.3800026e-05
5.3797893e-05
5.3796499e-05
5.3796972e-05
5.3796231e-05
5.3796231e-05
5.3796972e-05
5.3796499e-05
5.3797893e-05
5.3800026e-05
5.3808201e-05
5.3817051e-05
5.3836577e-05
5.3860948e-05
5.3908601e-05
5.3980545e-05
5.4151332e-05
5.455529e-05
5.6856321e-05
6.587794e-05
6.958046e-05
5.9200207e-05
5.6477174e-05
5.5991287e-05
5.5793161e-05
5.5712375e-05
5.5660213e-05
5.5634835e-05
5.5614574e-05
5.5606087e-05
5.5597965e-05
5.5596398e-05
5.5595422e-05
5.5596314e-05
5.5595642e-05
5.5595642e-05
5.5596314e-05
5.5595422e-05
5.5596398e-05
5.5597965e-05
5.5606087e-05
5.5614574e-05
5.5634835e-05
5.5660213e-05
5.5712375e-05
5.5793161e-05
5.5991287e-05
5.6477174e-05
5.9200207e-05
6.9580464e-05
7.3538895e-05
6.1730068e-05
5.8548566e-05
5.7969871e-05
5.7741634e-05
5.7651475e-05
5.7595012e-05
5.7569133e-05
5.7548637e-05
5.7540976e-05
5.7533275e-05
5.7532556e-05
5.7532204e-05
5.7533645e-05
5.7533101e-05
5.7533101e-05
5.7533645e-05
5.7532204e-05
5.7532556e-05
5.7533275e-05
5.7540976e-05
5.7548637e-05
5.7569133e-05
5.7595012e-05
5.7651475e-05
5.7741634e-05
5.7969871e-05
5.8548566e-05
6.1730069e-05
7.3538899e-05
7.7766782e-05
6.4450118e-05
6.0771792e-05
6.0088362e-05
5.9826806e-05
5.9726487e-05
5.9665857e-05
5.9639985e-05
5.961981e-05
5.9613507e-05
5.9606669e-05
5.9607137e-05
5.9607666e-05
5.9609809e-05
5.9609461e-05
5.9609461e-05
5.9609809e-05
5.9607666e-05
5.9607137e-05
5.9606669e-05
5.9613507e-05
5.961981e-05
5.9639985e-05
5.9665857e-05
5.9726487e-05
5.9826806e-05
6.0088362e-05
6.0771792e-05
6.4450119e-05
7.7766787e-05
8.2284144e-05
6.7367186e-05
6.3150854e-05
6.2349681e-05
6.2051082e-05
6.1939515e-05
6.1874754e-05
6.1849376e-05
6.1830123e-05
6.1825782e-05
6.1820327e-05
6.1822392e-05
6.1824115e-05
6.1827156e-05
6.1827087e-05
6.1827087e-05
6.1827156e-05
6.1824115e-05
6.1822392e-05
6.1820327e-05
6.1825782e-05
6.1830123e-05
6.1849376e-05
6.1874754e-05
6.1939515e-05
6.2051082e-05
6.2349681e-05
6.3150854e-05
6.7367187e-05
8.228415e-05
8.7118073e-05
7.0490887e-05
6.569155e-05
6.4758378e-05
6.4418459e-05
6.4294221e-05
6.4225239e-05
6.4200798e-05
6.41831e-05
6.4181391e-05
6.4177924e-05
6.4182073e-05
6.4185371e-05
6.4189551e-05
6.4189868e-05
6.4189868e-05
6.4189551e-05
6.4185371e-05
6.4182073e-05
6.4177924e-05
6.4181391e-05
6.41831e-05
6.4200798e-05
6.4225239e-05
6.4294221e-05
6.4418459e-05
6.4758378e-05
6.569155e-05
7.0490888e-05
8.711808e-05
9.2303496e-05
7.3833794e-05
6.8401484e-05
6.7320589e-05
6.693454e-05
6.6795881e-05
6.6722411e-05
6.6699281e-05
6.6683784e-05
6.6685434e-05
6.6684641e-05
6.6691447e-05
6.6696774e-05
6.6702387e-05
6.6703218e-05
6.6703218e-05
6.6702387e-05
6.6696774e-05
6.6691447e-05
6.6684641e-05
6.6685434e-05
6.6683784e-05
6.6699281e-05
6.6722411e-05
6.6795881e-05
6.693454e-05
6.7320589e-05
6.8401484e-05
7.3833794e-05
9.2303504e-05
9.7882784e-05
7.7411549e-05
7.1290125e-05
7.0044064e-05
6.9606537e-05
6.9451412e-05
6.9372973e-05
6.9351434e-05
6.9338773e-05
6.9344552e-05
6.9347195e-05
6.9357314e-05
6.9365202e-05
6.9372599e-05
6.9374104e-05
6.9374104e-05
6.9372599e-05
6.9365202e-05
6.9357314e-05
6.9347195e-05
6.9344552e-05
6.9338773e-05
6.9351434e-05
6.9372973e-05
6.9451412e-05
6.9606537e-05
7.0044064e-05
7.1290125e-05
7.741155e-05
9.7882793e-05
0.00010390461
8.1243004e-05
7.4368903e-05
7.293825e-05
7.2443334e-05
7.2269389e-05
7.2185276e-05
7.2165491e-05
7.2156282e-05
7.2166984e-05
7.2173892e-05
7.218806e-05
7.2199117e-05
7.2208713e-05
7.221108e-05
7.221108e-05
7.2208713e-05
7.2199117e-05
7.218806e-05
7.2173892e-05
7.2166984e-05
7.2156282e-05
7.2165491e-05
7.2185275e-05
7.2269389e-05
7.2443334e-05
7.293825e-05
7.4368903e-05
8.1243004e-05
0.00010390462
0.00011042255
8.535035e-05
7.7651375e-05
7.6014392e-05
7.5455497e-05
7.5260082e-05
7.5169389e-05
7.5151385e-05
7.5146208e-05
7.5162654e-05
7.5174703e-05
7.5193727e-05
7.5208637e-05
7.5220908e-05
7.5224356e-05
7.5224356e-05
7.5220908e-05
7.5208637e-05
7.5193727e-05
7.5174703e-05
7.5162654e-05
7.5146208e-05
7.5151385e-05
7.5169389e-05
7.5260082e-05
7.5455497e-05
7.6014392e-05
7.7651375e-05
8.5350351e-05
0.00011042256
0.00011749385
8.9759296e-05
8.1153432e-05
7.9285681e-05
7.8655398e-05
7.8435548e-05
7.8337201e-05
7.8320855e-05
7.8320242e-05
7.834327e-05
7.8361385e-05
7.8386135e-05
7.8405644e-05
7.8421125e-05
7.8425902e-05
7.8425902e-05
7.8421125e-05
7.8405644e-05
7.8386135e-05
7.8361385e-05
7.834327e-05
7.8320242e-05
7.8320855e-05
7.8337201e-05
7.8435548e-05
7.8655398e-05
7.9285681e-05
8.1153432e-05
8.9759297e-05
0.00011749387
0.00012517863
9.4499294e-05
8.4893576e-05
8.276748e-05
8.2057461e-05
8.1809819e-05
8.1702557e-05
8.168762e-05
8.1692037e-05
8.1722476e-05
8.174763e-05
8.1779034e-05
8.1803954e-05
8.1823236e-05
8.1829612e-05
8.1829612e-05
8.1823236e-05
8.1803954e-05
8.1779034e-05
8.174763e-05
8.1722476e-05
8.1692037e-05
8.168762e-05
8.1702557e-05
8.1809819e-05
8.2057461e-05
8.276748e-05
8.4893576e-05
9.4499295e-05
0.00012517865
0.0001335395
9.9603827e-05
8.8893258e-05
8.6477573e-05
8.5678369e-05
8.5399114e-05
8.5281495e-05
8.5267609e-05
8.5277441e-05
8.5316073e-05
8.5349255e-05
8.5388297e-05
8.5419498e-05
8.544323e-05
8.5451502e-05
8.5451502e-05
8.544323e-05
8.5419498e-05
8.5388297e-05
8.5349255e-05
8.5316073e-05
8.5277441e-05
8.5267609e-05
8.5281495e-05
8.5399114e-05
8.5678369e-05
8.6477573e-05
8.8893258e-05
9.9603828e-05
0.00013353952
0.00014264192
0.00010511075
9.3177325e-05
9.0436496e-05
8.9537318e-05
8.9222093e-05
8.9092512e-05
8.9079228e-05
8.9094756e-05
8.9142284e-05
8.9184477e-05
8.9232173e-05
8.9270565e-05
8.9299444e-05
8.9309935e-05
8.9309935e-05
8.9299444e-05
8.9270565e-05
8.9232173e-05
8.9184477e-05
8.9142284e-05
8.9094756e-05
8.9079228e-05
8.9092512e-05
8.9222093e-05
8.9537318e-05
9.0436496e-05
9.3177325e-05
0.00010511075
0.00014264194
0.00015255503
0.00011106286
9.7774557e-05
9.4668021e-05
9.3656457e-05
9.3300265e-05
9.3156917e-05
9.3143689e-05
9.3165111e-05
9.3222158e-05
9.3274295e-05
9.3331656e-05
9.3378171e-05
9.3412933e-05
9.3425988e-05
9.3425988e-05
9.3412933e-05
9.3378171e-05
9.3331656e-05
9.3274295e-05
9.3222158e-05
9.3165111e-05
9.3143689e-05
9.3156917e-05
9.3300265e-05
9.3656457e-05
9.4668021e-05
9.7774557e-05
0.00011106286
0.00015255505
0.00016335308
0.0001175079
0.00010271821
9.9199687e-05
9.8061392e-05
9.7658474e-05
9.7499289e-05
9.7485437e-05
9.75129e-05
9.7580024e-05
9.7642968e-05
9.7710967e-05
9.776653e-05
9.7807939e-05
9.7823924e-05
9.7823924e-05
9.7807939e-05
9.776653e-05
9.7710967e-05
9.7642968e-05
9.7580024e-05
9.75129e-05
9.7485437e-05
9.7499289e-05
9.7658474e-05
9.8061392e-05
9.9199687e-05
0.00010271821
0.0001175079
0.00016335311
0.00017511709
0.00012449893
0.00010804654
0.00010406335
0.00010278169
0.0001023254
0.00010214798
0.00010213266
0.00010216626
0.00010224398
0.00010231852
0.00010239808
0.00010246359
0.00010251243
0.00010253173
0.00010253173
0.00010251243
0.00010246359
0.00010239808
0.00010231852
0.00010224398
0.00010216626
0.00010213266
0.00010214798
0.0001023254
0.00010278169
0.00010406335
0.00010804654
0.00012449893
0.00017511712
0.00018793683
0.00013209477
0.00011380326
0.00010929568
0.00010785137
0.00010733404
0.0001071356
0.00010711778
0.00010715756
0.00010724637
0.00010733327
0.00010742524
0.00010750154
0.00010755861
0.00010758161
0.00010758161
0.00010755861
0.00010750154
0.00010742524
0.00010733327
0.00010724637
0.00010715756
0.00010711778
0.0001071356
0.00010733404
0.00010785137
0.00010929568
0.00011380326
0.00013209477
0.00018793687
0.00020191345
0.00014036035
0.000120038
0.00011493863
0.00011330937
0.00011272218
0.00011249952
0.00011247797
0.00011252391
0.00011262428
0.00011272423
0.0001128294
0.00011291729
0.00011298337
0.0001130105
0.0001130105
0.00011298337
0.00011291729
0.0001128294
0.00011272423
0.00011262428
0.00011252391
0.00011247796
0.00011249952
0.00011272218
0.00011330937
0.00011493863
0.000120038
0.00014036035
0.00020191349
0.00021716245
0.00014936716
0.00012680666
0.00012103992
0.00011920003
0.00011853285
0.00011828226
0.00011825555
0.0001183076
0.00011841998
0.00011853365
0.00011865274
0.00011875297
0.0001188288
0.00011886047
0.00011886047
0.0001188288
0.00011875297
0.00011865274
0.00011853365
0.00011841998
0.0001183076
0.00011825554
0.00011828226
0.00011853285
0.00011920003
0.00012103992
0.00012680666
0.00014936716
0.0002171625
0.00023381683
0.00015919332
0.0001341717
0.00012765332
0.00012557342
0.00012481464
0.00012453191
0.00012449843
0.0001245565
0.00012468134
0.0001248094
0.00012494309
0.00012505632
0.00012514259
0.00012517921
0.00012517921
0.00012514259
0.00012505632
0.00012494309
0.0001248094
0.00012468134
0.0001245565
0.00012449843
0.00012453191
0.00012481464
0.00012557342
0.00012765332
0.0001341717
0.00015919332
0.00023381688
0.00025203092
0.00016992414
0.0001422024
0.00013483892
0.00013248555
0.0001316219
0.00013130227
0.00013126024
0.00013132424
0.00013146201
0.00013160513
0.00013175405
0.0001318809
0.00013197825
0.00013202022
0.00013202022
0.00013197825
0.0001318809
0.00013175405
0.00013160513
0.00013146201
0.00013132424
0.00013126024
0.00013130227
0.0001316219
0.00013248555
0.00013483892
0.0001422024
0.00016992415
0.00025203098
0.00027198502
0.00018165286
0.00015097512
0.00014266325
0.00013999846
0.00013901484
0.0001386529
0.00013860036
0.00013867017
0.00013882133
0.00013898019
0.00013914496
0.00013928599
0.00013939496
0.00013944264
0.00013944264
0.00013939496
0.00013928599
0.00013914496
0.00013898019
0.00013882133
0.00013867017
0.00013860036
0.0001386529
0.00013901484
0.00013999846
0.00014266325
0.00015097512
0.00018165286
0.00027198508
0.0002938907
0.00019448193
0.00016057381
0.00015119969
0.0001481806
0.00014705988
0.00014664951
0.00014658425
0.00014665972
0.00014682471
0.00014699997
0.00014718117
0.00014733687
0.00014745789
0.00014751161
0.00014751161
0.00014745789
0.00014733687
0.00014718117
0.00014699997
0.00014682471
0.00014665972
0.00014658425
0.00014664951
0.00014705988
0.0001481806
0.00015119969
0.00016057381
0.00019448194
0.00029389077
0.0003179966
0.0002085241
0.00017109047
0.00016052867
0.00015710706
0.00015582987
0.0001553641
0.00015528364
0.00015536457
0.00015554381
0.00015573608
0.00015593425
0.00015610507
0.00015623852
0.00015629854
0.00015629854
0.00015623852
0.00015610507
0.00015593425
0.00015573608
0.00015554381
0.00015536457
0.00015528364
0.0001553641
0.00015582987
0.00015710706
0.00016052867
0.00017109047
0.0002085241
0.00031799668
0.00034459556
0.0002239034
0.00018262563
0.00017073798
0.00016685964
0.00016540408
0.00016487496
0.0001647765
0.00016486261
0.00016505649
0.00016526644
0.00016548209
0.00016566843
0.00016581465
0.0001658812
0.0001658812
0.00016581465
0.00016566843
0.00016548209
0.00016526644
0.00016505649
0.00016486261
0.0001647765
0.00016487496
0.00016540408
0.00016685964
0.00017073798
0.00018262563
0.00022390341
0.00034459565
0.00037403328
0.00024075775
0.00019528955
0.00018192348
0.00017752741
0.00017586863
0.00017526702
0.00017514734
0.00017523824
0.00017544718
0.0001756755
0.00017590922
0.0001761115
0.00017627074
0.00017634393
0.00017634393
0.00017627074
0.0001761115
0.00017590922
0.0001756755
0.00017544718
0.00017523824
0.00017514734
0.00017526702
0.00017586863
0.00017752741
0.00018192348
0.00019528955
0.00024075776
0.00037403338
0.00040671721
0.00025924147
0.00020920341
0.00019418963
0.00018920701
0.0001873168
0.00018663209
0.00018648743
0.00018658262
0.00018680707
0.00018705453
0.00018730693
0.00018752561
0.00018769808
0.00018777795
0.00018777795
0.00018769808
0.00018752561
0.00018730693
0.00018705453
0.00018680707
0.00018658262
0.00018648743
0.00018663209
0.0001873168
0.00018920701
0.00019418963
0.00020920341
0.00025924148
0.00040671732
0.00044312848
0.00027952799
0.00022450073
0.0002076504
0.00020200328
0.00019984943
0.00019906928
0.00019889522
0.00019899404
0.00019923449
0.00019950192
0.00019977368
0.00020000925
0.00020019516
0.0002002817
0.0002002817
0.00020019516
0.00020000925
0.00019977368
0.00019950192
0.00019923449
0.00019899404
0.00019889522
0.00019906928
0.00019984943
0.00020200328
0.0002076504
0.00022450073
0.00027952799
0.00044312861
0.00048383781
0.00030181356
0.00024132967
0.00022243074
0.00021603042
0.00021357601
0.00021268593
0.0002124773
0.00021257886
0.00021283577
0.00021312407
0.00021341596
0.00021366901
0.00021386858
0.0002139618
0.0002139618
0.00021386858
0.00021366901
0.00021341596
0.00021312407
0.00021283577
0.00021257886
0.0002124773
0.00021268593
0.000213576
0.00021603042
0.00022243074
0.00024132967
0.00030181356
0.00048383795
0.00052952132
0.00032632172
0.00025985554
0.00023866828
0.00023141326
0.0002286156
0.00022759853
0.00022734919
0.00022745229
0.00022772608
0.00022803623
0.00022834917
0.00022862042
0.00022883395
0.00022893386
0.00022893386
0.00022883395
0.00022862042
0.00022834917
0.00022803623
0.00022772608
0.00022745229
0.00022734919
0.00022759853
0.0002286156
0.00023141326
0.00023866828
0.00025985554
0.00032632173
0.00052952148
0.00058098055
0.00035330846
0.00028026372
0.00025651521
0.00024828876
0.00024509817
0.00024393389
0.00024363647
0.00024373947
0.00024403051
0.00024436355
0.0002446986
0.00024498897
0.00024521693
0.00024532361
0.00024532361
0.00024521693
0.00024498897
0.0002446986
0.00024436355
0.00024403051
0.00024373947
0.00024363647
0.00024393388
0.00024509817
0.00024828876
0.00025651521
0.00028026372
0.00035330847
0.00058098074
0.00063916465
0.0003830687
0.00030276383
0.00027614114
0.00026680811
0.00026316652
0.00026183098
0.00026147652
0.00026157725
0.0002618858
0.00026224288
0.00026260128
0.00026291194
0.00026315498
0.00026326857
0.00026326857
0.00026315498
0.00026291194
0.00026260128
0.00026224288
0.0002618858
0.00026157725
0.00026147652
0.00026183097
0.00026316652
0.00026680811
0.00027614114
0.00030276383
0.00038306871
0.00063916486
0.00070519848
0.00041594356
0.00032759384
0.00029773609
0.00028713875
0.00028297777
0.00028144223
0.00028101984
0.00028111563
0.00028144212
0.00028182451
0.00028220768
0.00028253999
0.00028279889
0.00028291961
0.00028291961
0.00028279889
0.00028253999
0.00028220768
0.00028182451
0.00028144212
0.00028111563
0.00028101984
0.00028144223
0.00028297777
0.00028713875
0.00029773609
0.00032759384
0.00041594357
0.00070519872
0.00078041308
0.00045232967
0.000355025
0.00032151384
0.00030946744
0.00030470659
0.00030293669
0.00030243311
0.00030252006
0.00030286463
0.00030327403
0.00030368364
0.00030403921
0.00030431493
0.00030444314
0.00030444314
0.00030431493
0.00030403921
0.00030368364
0.00030327403
0.00030286463
0.00030252006
0.00030243311
0.00030293668
0.00030470659
0.00030946744
0.00032151384
0.000355025
0.00045232969
0.00078041335
0.00086638344
0.00049269112
0.00038536981
0.00034771693
0.00033400448
0.00032854827
0.00032650266
0.00032590156
0.00032597457
0.00032633689
0.00032677535
0.00032721343
0.00032759421
0.00032788797
0.00032802414
0.00032802414
0.00032788797
0.00032759421
0.00032721343
0.00032677535
0.00032633688
0.00032597457
0.00032590156
0.00032650266
0.00032854827
0.00033400447
0.00034771692
0.00038536981
0.00049269113
0.00086638375
0.00096496938
0.00053757131
0.00041898711
0.00037662186
0.00036098709
0.00035472187
0.0003523506
0.00035163186
0.00035168433
0.00035206377
0.00035253302
0.00035300255
0.00035341088
0.00035372419
0.00035386894
0.00035386894
0.00035372419
0.00035341088
0.00035300255
0.00035253302
0.00035206377
0.00035168433
0.00035163186
0.0003523506
0.00035472187
0.00036098709
0.00037662186
0.00041898711
0.00053757133
0.00096496973
0.0010783603
0.00058760875
0.00045628807
0.00040854366
0.00039068364
0.00038347365
0.00038071631
0.00037985524
0.00037987878
0.00038027434
0.00038077634
0.00038128058
0.00038171943
0.00038205414
0.00038220829
0.00038220829
0.00038205414
0.00038171943
0.00038128058
0.00038077634
0.00038027434
0.00037987877
0.00037985523
0.00038071631
0.00038347365
0.00039068364
0.00040854366
0.00045628807
0.00058760877
0.0010783607
0.0012091281
0.00064354947
0.00049774498
0.00044384273
0.00042339931
0.0004150822
0.00041186562
0.00041083183
0.0004108158
0.00041122595
0.00041176287
0.00041230517
0.0004127784
0.00041313696
0.00041330154
0.00041330154
0.00041313696
0.0004127784
0.00041230517
0.00041176287
0.00041122595
0.0004108158
0.00041083183
0.00041186562
0.0004150822
0.00042339931
0.00044384273
0.00049774498
0.0006435495
0.0012091285
0.001360278
0.00070626477
0.00054390061
0.0004829313
0.00045948148
0.00044986317
0.00044609876
0.00044485483
0.00044478578
0.0004452082
0.00044578241
0.00044636661
0.00044687811
0.00044726333
0.00044743965
0.00044743965
0.00044726333
0.00044687811
0.00044636661
0.00044578241
0.0004452082
0.00044478577
0.00044485483
0.00044609876
0.00044986317
0.00045948148
0.0004829313
0.0005439006
0.00070626479
0.0013602785
0.0015353033
0.00077676876
0.00059537765
0.00052628064
0.00049932537
0.00048817431
0.00048375501
0.00048225492
0.00048211571
0.00048254711
0.00048316114
0.00048379168
0.00048434598
0.00048476121
0.0004849509
0.0004849509
0.00048476121
0.00048434597
0.00048379168
0.00048316114
0.00048254711
0.0004821157
0.00048225492
0.00048375501
0.00048817431
0.00049932536
0.00052628064
0.00059537765
0.00077676879
0.0015353039
0.0017382465
0.00085623693
0.00065289148
0.00057443002
0.00054338164
0.00053042189
0.00052521866
0.00052340603
0.00052317506
0.00052361076
0.0005242673
0.00052494936
0.0005255517
0.00052600081
0.00052620581
0.00052620581
0.00052600081
0.0005255517
0.00052494935
0.0005242673
0.00052361075
0.00052317506
0.00052340603
0.00052521866
0.00053042188
0.00054338164
0.00057443001
0.00065289148
0.00085623696
0.0017382473
0.0019737668
0.00094603655
0.00071726019
0.00062799465
0.00059216341
0.00057706676
0.00057092439
0.00056873056
0.00056838081
0.00056881429
0.00056951602
0.00057025548
0.00057091186
0.00057139934
0.00057162195
0.00057162195
0.00057139934
0.00057091186
0.00057025548
0.00056951602
0.00056881429
0.00056838081
0.00056873056
0.00057092438
0.00057706675
0.0005921634
0.00062799464
0.00071726019
0.00094603658
0.0019737676
0.0022472042
0.0010477128
0.00078940706
0.00068767375
0.00064625331
0.0006286308
0.00062136325
0.00061870474
0.00061820253
0.00061862488
0.00061937414
0.00062017756
0.00062089489
0.00062142599
0.00062166896
0.00062166896
0.00062142599
0.00062089489
0.00062017756
0.00061937414
0.00061862487
0.00061820253
0.00061870473
0.00062136325
0.00062863079
0.00064625331
0.00068767374
0.00078940706
0.0010477128
0.0022472052
0.0025646529
0.0011630185
0.00087037569
0.00075425976
0.00070631232
0.00068570515
0.00067709032
0.00067386585
0.00067316937
0.00067356854
0.00067436708
0.00067524161
0.00067602776
0.00067660861
0.00067687517
0.00067687517
0.00067660861
0.00067602776
0.00067524161
0.00067436708
0.00067356854
0.00067316936
0.00067386585
0.00067709031
0.00068570514
0.00070631231
0.00075425975
0.00087037569
0.0011630186
0.002564654
0.0029330386
0.0012939452
0.00096133863
0.00082864582
0.00077308741
0.00074895736
0.00073873117
0.0007348185
0.00073387607
0.0007342361
0.00073508471
0.00073603787
0.00073690166
0.00073753929
0.00073783317
0.00073783317
0.00073753929
0.00073690166
0.00073603787
0.0007350847
0.0007342361
0.00073387606
0.0007348185
0.00073873116
0.00074895735
0.00077308741
0.00082864581
0.00096133863
0.0012939452
0.0029330399
0.0033602043
0.001442731
0.0010636037
0.00091183283
0.00084741917
0.00081913827
0.00080698825
0.00080224058
0.00080098875
0.0008012888
0.00080218682
0.00080322634
0.00080417746
0.00080487983
0.00080520528
0.00080520528
0.00080487983
0.00080417746
0.00080322633
0.00080218682
0.00080128879
0.00080098875
0.00080224057
0.00080698825
0.00081913826
0.00084741916
0.00091183282
0.0010636037
0.001442731
0.0033602058
0.0038550214
0.0016118793
0.0011786217
0.0010049385
0.00093025068
0.00089709082
0.00088264929
0.00087689114
0.00087525254
0.00087546571
0.00087641053
0.00087754402
0.00087859292
0.00087936886
0.00087973061
0.00087973061
0.00087936886
0.00087859292
0.00087754401
0.00087641052
0.00087546571
0.00087525253
0.00087689114
0.00088264928
0.00089709081
0.00093025067
0.0010049385
0.0011786217
0.0016118794
0.0038550232
0.0044275029
0.0018041758
0.0013079942
0.0011092039
0.0010226343
0.00098375703
0.00096659409
0.00095961671
0.00095749735
0.00095758943
0.00095857573
0.00095981037
0.00096096807
0.00096182717
0.0009622304
0.0009622304
0.00096182717
0.00096096806
0.00095981036
0.00095857573
0.00095758943
0.00095749734
0.0009596167
0.00096659408
0.00098375702
0.0010226343
0.0011092039
0.0013079942
0.0018041759
0.0044275049
0.0050889294
0.0020227053
0.0014534468
0.0012259979
0.0011257374
0.0010801842
0.0010598006
0.0010513569
0.0010486433
0.001048571
0.0010495899
0.0010509321
0.00105221
0.0010531626
0.0010536129
0.0010536129
0.0010531626
0.00105221
0.0010509321
0.0010495899
0.001048571
0.0010486433
0.0010513569
0.0010598006
0.0010801842
0.0011257374
0.0012259979
0.0014534467
0.0020227054
0.0050889318
0.0058520108
0.0022708731
0.0016168669
0.0013568233
0.0012408505
0.0011875332
0.0011633528
0.0011531524
0.0011497081
0.0011494171
0.0011504552
0.0011519101
0.00115332
0.0011543768
0.0011548802
0.0011548802
0.0011543768
0.0011533199
0.0011519101
0.0011504552
0.0011494171
0.0011497081
0.0011531523
0.0011633528
0.0011875332
0.0012408505
0.0013568233
0.0016168669
0.0022708732
0.0058520136
0.0067310217
0.0025524247
0.0018003091
0.001503318
0.001369392
0.0013070835
0.0012784458
0.0012661498
0.0012618126
0.0012612355
0.001262273
0.0012638439
0.0012653972
0.0012665694
0.0012671322
0.0012671322
0.0012665694
0.0012653972
0.0012638439
0.001262273
0.0012612354
0.0012618126
0.0012661498
0.0012784458
0.0013070835
0.001369392
0.0015033179
0.0018003091
0.0025524248
0.006731025
0.0077420024
0.0028714669
0.0020059832
0.0016672547
0.0015129102
0.0014402372
0.0014063899
0.0013916064
0.0013861839
0.0013852378
0.0013862478
0.001387935
0.0013896427
0.0013909415
0.0013915702
0.0013915702
0.0013909415
0.0013896427
0.001387935
0.0013862478
0.0013852378
0.0013861839
0.0013916064
0.0014063899
0.0014402372
0.0015129102
0.0016672546
0.0020059831
0.0028714671
0.0077420062
0.0089030704
0.0032325018
0.0022362583
0.0018505475
0.0016730877
0.001588525
0.0015486181
0.0015308961
0.0015241624
0.0015227464
0.0015236934
0.0015254936
0.0015273652
0.0015288017
0.001529503
0.001529503
0.0015288017
0.0015273652
0.0015254935
0.0015236934
0.0015227464
0.0015241624
0.001530896
0.0015486181
0.001588525
0.0016730877
0.0018505475
0.0022362583
0.0032325019
0.0089030749
0.010234668
0.0036404557
0.0024936603
0.0020552499
0.001851742
0.0017536085
0.0017066884
0.0016855127
0.0016772043
0.0016751966
0.0016760345
0.0016779396
0.001679983
0.0016815678
0.0016823482
0.0016823482
0.0016815678
0.001679983
0.0016779396
0.0016760345
0.0016751966
0.0016772043
0.0016855127
0.0017066884
0.0017536085
0.0018517419
0.0020552498
0.0024936603
0.003640456
0.010234673
0.011759861
0.0041007096
0.0027808703
0.0022835428
0.0020508232
0.0019372799
0.0018822845
0.0018570711
0.0018468826
0.001844138
0.0018448083
0.0018468043
0.0018490245
0.0018507674
0.0018516333
0.0018516333
0.0018507674
0.0018490245
0.0018468043
0.0018448083
0.001844138
0.0018468826
0.0018570711
0.0018822845
0.0019372799
0.0020508232
0.0022835428
0.0027808702
0.0041007099
0.011759867
0.013504742
0.0046191376
0.0031007286
0.0025377397
0.0022724161
0.0021414654
0.0020772203
0.0020473112
0.0020348921
0.0020312388
0.0020316684
0.0020337338
0.0020361325
0.002038042
0.0020389994
0.0020389994
0.002038042
0.0020361325
0.0020337338
0.0020316684
0.0020312388
0.0020348921
0.0020473112
0.0020772203
0.0021414653
0.0022724161
0.0025377396
0.0031007286
0.0046191379
0.013504749
0.015498792
0.0052021707
0.0034562315
0.0028202725
0.0025187334
0.0023682225
0.0022934386
0.0022580979
0.0022430479
0.0022382847
0.0022383838
0.0022404881
0.0022430627
0.0022451454
0.0022461997
0.0022461997
0.0022451454
0.0022430627
0.0022404881
0.0022383837
0.0022382847
0.0022430478
0.0022580978
0.0022934386
0.0023682225
0.0025187334
0.0028202724
0.0034562314
0.005202171
0.0154988
0.017775402
0.0058581838
0.0038505364
0.0031336807
0.002792107
0.0026197334
0.0025330055
0.0024914153
0.0024732812
0.0024671744
0.0024668339
0.0024689361
0.0024716785
0.0024739388
0.0024750946
0.0024750946
0.0024739388
0.0024716784
0.002468936
0.0024668339
0.0024671744
0.0024732812
0.0024914153
0.0025330055
0.0026197334
0.0027921069
0.0031336806
0.0038505364
0.0058581842
0.017775412
0.02037224
0.0065959504
0.0042869661
0.0034806139
0.0030949847
0.0028983017
0.0027981095
0.0027493689
0.0027276412
0.0027199215
0.0027190112
0.0027210581
0.002723954
0.0027263933
0.0027276539
0.0027276539
0.0027263933
0.0027239539
0.0027210581
0.0027190112
0.0027199215
0.0027276412
0.0027493689
0.0027981094
0.0028983017
0.0030949847
0.0034806138
0.004286966
0.0065959509
0.020372251
0.023331522
0.00742377
0.004768985
0.0038638225
0.0034299223
0.0032063493
0.0030910625
0.0030341859
0.003008296
0.0029986561
0.0029970223
0.0029989474
0.003001975
0.0030045913
0.0030059587
0.0030059587
0.0030045913
0.003001975
0.0029989474
0.0029970223
0.0029986561
0.003008296