/*--------------------------------*- C++ -*----------------------------------*\
  =========                 |
  \\      /  F ield         | OpenFOAM: The Open Source CFD Toolbox
   \\    /   O peration     | Website:  https://openfoam.org
    \\  /    A nd           | Version:  8
     \\/     M anipulation  |
\*---------------------------------------------------------------------------*/
/*   Windows 32 and 64 bit porting by blueCAPE: http://www.bluecape.com.pt   *\
|  Based on Windows porting (2.0.x v4) by Symscape: http://www.symscape.com   |
\*---------------------------------------------------------------------------*/
FoamFile
{
    version     2.0;
    format      ascii;
    class       volScalarField;
    location    "90";
    object      epsilon_0;
}
// * * * * * * * * * * * * * * * * * * * * * * * * * * * * * * * * * * * * * //

dimensions      [0 2 -3 0 0 0 0];

internalField   nonuniform List<scalar> 
283500
(
4.4192336e-05
4.4046811e-05
4.4011308e-05
4.4005523e-05
4.4001456e-05
4.3999472e-05
4.399793e-05
4.3996974e-05
4.399623e-05
4.3995803e-05
4.3995469e-05
4.3995317e-05
4.3995222e-05
4.3995195e-05
4.3995161e-05
4.3995161e-05
4.3995195e-05
4.3995222e-05
4.3995317e-05
4.3995469e-05
4.3995803e-05
4.399623e-05
4.3996974e-05
4.399793e-05
4.3999472e-05
4.4001456e-05
4.4005523e-05
4.4011308e-05
4.4046811e-05
4.4192336e-05
4.4834037e-05
4.4402505e-05
4.43003e-05
4.4283374e-05
4.4272064e-05
4.4266552e-05
4.4262294e-05
4.4259685e-05
4.4257624e-05
4.425646e-05
4.425553e-05
4.4255117e-05
4.4254853e-05
4.4254783e-05
4.4254688e-05
4.4254688e-05
4.4254783e-05
4.4254853e-05
4.4255117e-05
4.425553e-05
4.425646e-05
4.4257624e-05
4.4259685e-05
4.4262294e-05
4.4266552e-05
4.4272064e-05
4.4283374e-05
4.43003e-05
4.4402505e-05
4.4834037e-05
4.5865605e-05
4.496806e-05
4.4766319e-05
4.4731852e-05
4.4710596e-05
4.4700395e-05
4.4692605e-05
4.4687865e-05
4.4684085e-05
4.4681978e-05
4.4680267e-05
4.4679523e-05
4.4679038e-05
4.467892e-05
4.4678744e-05
4.4678744e-05
4.467892e-05
4.4679038e-05
4.4679523e-05
4.4680267e-05
4.4681978e-05
4.4684085e-05
4.4687865e-05
4.4692605e-05
4.4700395e-05
4.4710596e-05
4.4731852e-05
4.4766319e-05
4.496806e-05
4.5865605e-05
4.7281632e-05
4.5746196e-05
4.540935e-05
4.5351016e-05
4.5317443e-05
4.5301366e-05
4.5289332e-05
4.5282072e-05
4.5276251e-05
4.5273032e-05
4.5270388e-05
4.5269254e-05
4.5268507e-05
4.5268336e-05
4.5268062e-05
4.5268062e-05
4.5268336e-05
4.5268507e-05
4.5269254e-05
4.5270388e-05
4.5273032e-05
4.5276251e-05
4.5282072e-05
4.5289332e-05
4.5301366e-05
4.5317443e-05
4.5351016e-05
4.540935e-05
4.5746196e-05
4.7281632e-05
4.905742e-05
4.6736631e-05
4.6227815e-05
4.6139543e-05
4.6091498e-05
4.6068523e-05
4.6051634e-05
4.6041482e-05
4.6033342e-05
4.6028891e-05
4.6025205e-05
4.6023648e-05
4.6022613e-05
4.6022391e-05
4.6022007e-05
4.6022007e-05
4.6022391e-05
4.6022613e-05
4.6023648e-05
4.6025205e-05
4.6028891e-05
4.6033342e-05
4.6041482e-05
4.6051634e-05
4.6068523e-05
4.6091498e-05
4.6139543e-05
4.6227815e-05
4.6736631e-05
4.905742e-05
5.116382e-05
4.793509e-05
4.7217302e-05
4.7093212e-05
4.7028846e-05
4.6998245e-05
4.6976173e-05
4.6963053e-05
4.6952533e-05
4.6946827e-05
4.6942059e-05
4.6940092e-05
4.6938785e-05
4.6938536e-05
4.6938042e-05
4.6938042e-05
4.6938536e-05
4.6938785e-05
4.6940092e-05
4.6942059e-05
4.6946827e-05
4.6952533e-05
4.6963053e-05
4.6976173e-05
4.6998245e-05
4.7028846e-05
4.7093212e-05
4.7217302e-05
4.793509e-05
5.1163821e-05
5.3573528e-05
4.9335855e-05
4.8372328e-05
4.8206602e-05
4.8124283e-05
4.8085661e-05
4.8058266e-05
4.8042279e-05
4.8029465e-05
4.8022632e-05
4.8016841e-05
4.8014539e-05
4.8013006e-05
4.8012765e-05
4.801217e-05
4.801217e-05
4.8012765e-05
4.8013006e-05
4.8014539e-05
4.8016841e-05
4.8022632e-05
4.8029465e-05
4.8042279e-05
4.8058266e-05
4.8085661e-05
4.8124283e-05
4.8206602e-05
4.8372328e-05
4.9335856e-05
5.3573529e-05
5.6263877e-05
5.0933049e-05
4.9687756e-05
4.9474033e-05
4.9372211e-05
4.9325401e-05
4.9292687e-05
4.9274055e-05
4.9259122e-05
4.9251362e-05
4.9244671e-05
4.9242154e-05
4.9240475e-05
4.9240299e-05
4.923962e-05
4.923962e-05
4.9240299e-05
4.9240475e-05
4.9242154e-05
4.9244671e-05
4.9251362e-05
4.9259122e-05
4.9274055e-05
4.9292687e-05
4.9325401e-05
4.9372211e-05
4.9474033e-05
4.9687756e-05
5.093305e-05
5.6263879e-05
5.9217757e-05
5.2721338e-05
5.1158963e-05
5.0890119e-05
5.0767186e-05
5.0712113e-05
5.0674205e-05
5.065325e-05
5.0636448e-05
5.0628013e-05
5.0620599e-05
5.0618019e-05
5.0616298e-05
5.0616253e-05
5.0615518e-05
5.0615518e-05
5.0616253e-05
5.0616298e-05
5.0618019e-05
5.0620599e-05
5.0628013e-05
5.0636448e-05
5.065325e-05
5.0674205e-05
5.0712113e-05
5.0767186e-05
5.0890119e-05
5.1158963e-05
5.2721338e-05
5.9217759e-05
6.2424081e-05
5.4696572e-05
5.2782261e-05
5.2450322e-05
5.2304488e-05
5.2241066e-05
5.2198165e-05
5.2175281e-05
5.2156928e-05
5.2148113e-05
5.2140191e-05
5.2137731e-05
5.2136096e-05
5.2136263e-05
5.2135504e-05
5.2135504e-05
5.2136263e-05
5.2136096e-05
5.2137731e-05
5.2140191e-05
5.2148113e-05
5.2156928e-05
5.2175281e-05
5.2198165e-05
5.2241066e-05
5.2304488e-05
5.2450322e-05
5.2782261e-05
5.4696572e-05
6.2424084e-05
6.5877937e-05
5.685632e-05
5.455529e-05
5.4151332e-05
5.3980545e-05
5.3908601e-05
5.3860948e-05
5.3836577e-05
5.3817051e-05
5.38082e-05
5.3800026e-05
5.3797893e-05
5.3796499e-05
5.3796972e-05
5.3796231e-05
5.3796231e-05
5.3796972e-05
5.3796499e-05
5.3797893e-05
5.3800026e-05
5.38082e-05
5.3817051e-05
5.3836577e-05
5.3860948e-05
5.3908601e-05
5.3980545e-05
5.4151332e-05
5.455529e-05
5.685632e-05
6.587794e-05
6.958046e-05
5.9200206e-05
5.6477173e-05
5.5991287e-05
5.579316e-05
5.5712375e-05
5.5660212e-05
5.5634835e-05
5.5614574e-05
5.5606087e-05
5.5597965e-05
5.5596398e-05
5.5595422e-05
5.5596314e-05
5.5595642e-05
5.5595642e-05
5.5596314e-05
5.5595422e-05
5.5596398e-05
5.5597965e-05
5.5606087e-05
5.5614574e-05
5.5634835e-05
5.5660212e-05
5.5712375e-05
5.579316e-05
5.5991287e-05
5.6477173e-05
5.9200207e-05
6.9580463e-05
7.3538894e-05
6.1730068e-05
5.8548566e-05
5.7969871e-05
5.7741634e-05
5.7651475e-05
5.7595012e-05
5.7569133e-05
5.7548637e-05
5.7540976e-05
5.7533275e-05
5.7532556e-05
5.7532204e-05
5.7533645e-05
5.7533101e-05
5.7533101e-05
5.7533645e-05
5.7532204e-05
5.7532556e-05
5.7533275e-05
5.7540976e-05
5.7548637e-05
5.7569133e-05
5.7595012e-05
5.7651475e-05
5.7741634e-05
5.7969871e-05
5.8548566e-05
6.1730068e-05
7.3538898e-05
7.7766782e-05
6.4450118e-05
6.0771791e-05
6.0088362e-05
5.9826806e-05
5.9726487e-05
5.9665857e-05
5.9639985e-05
5.961981e-05
5.9613507e-05
5.9606669e-05
5.9607137e-05
5.9607665e-05
5.9609809e-05
5.9609461e-05
5.9609461e-05
5.9609809e-05
5.9607665e-05
5.9607137e-05
5.9606669e-05
5.9613507e-05
5.961981e-05
5.9639985e-05
5.9665857e-05
5.9726487e-05
5.9826806e-05
6.0088362e-05
6.0771791e-05
6.4450118e-05
7.7766787e-05
8.2284143e-05
6.7367186e-05
6.3150854e-05
6.2349681e-05
6.2051081e-05
6.1939515e-05
6.1874754e-05
6.1849376e-05
6.1830123e-05
6.1825782e-05
6.1820327e-05
6.1822392e-05
6.1824115e-05
6.1827156e-05
6.1827087e-05
6.1827087e-05
6.1827156e-05
6.1824115e-05
6.1822392e-05
6.1820327e-05
6.1825782e-05
6.1830123e-05
6.1849376e-05
6.1874754e-05
6.1939515e-05
6.2051081e-05
6.2349681e-05
6.3150854e-05
6.7367186e-05
8.2284149e-05
8.7118072e-05
7.0490887e-05
6.569155e-05
6.4758378e-05
6.4418459e-05
6.4294221e-05
6.4225239e-05
6.4200797e-05
6.41831e-05
6.4181391e-05
6.4177924e-05
6.4182073e-05
6.4185371e-05
6.4189551e-05
6.4189867e-05
6.4189867e-05
6.4189551e-05
6.4185371e-05
6.4182073e-05
6.4177924e-05
6.4181391e-05
6.41831e-05
6.4200797e-05
6.4225239e-05
6.4294221e-05
6.4418459e-05
6.4758378e-05
6.569155e-05
7.0490887e-05
8.7118079e-05
9.2303495e-05
7.3833793e-05
6.8401484e-05
6.7320589e-05
6.6934539e-05
6.6795881e-05
6.6722411e-05
6.6699281e-05
6.6683783e-05
6.6685434e-05
6.6684641e-05
6.6691446e-05
6.6696774e-05
6.6702387e-05
6.6703218e-05
6.6703218e-05
6.6702387e-05
6.6696774e-05
6.6691446e-05
6.6684641e-05
6.6685434e-05
6.6683783e-05
6.6699281e-05
6.6722411e-05
6.6795881e-05
6.6934539e-05
6.7320589e-05
6.8401484e-05
7.3833794e-05
9.2303503e-05
9.7882783e-05
7.7411549e-05
7.1290125e-05
7.0044063e-05
6.9606537e-05
6.9451411e-05
6.9372973e-05
6.9351434e-05
6.9338773e-05
6.9344552e-05
6.9347195e-05
6.9357313e-05
6.9365201e-05
6.9372599e-05
6.9374104e-05
6.9374104e-05
6.9372599e-05
6.9365201e-05
6.9357313e-05
6.9347195e-05
6.9344552e-05
6.9338773e-05
6.9351434e-05
6.9372973e-05
6.9451411e-05
6.9606537e-05
7.0044063e-05
7.1290125e-05
7.7411549e-05
9.7882792e-05
0.00010390461
8.1243003e-05
7.4368902e-05
7.2938249e-05
7.2443333e-05
7.2269388e-05
7.2185275e-05
7.2165491e-05
7.2156282e-05
7.2166984e-05
7.2173891e-05
7.218806e-05
7.2199117e-05
7.2208712e-05
7.221108e-05
7.221108e-05
7.2208712e-05
7.2199116e-05
7.218806e-05
7.2173891e-05
7.2166984e-05
7.2156282e-05
7.2165491e-05
7.2185275e-05
7.2269388e-05
7.2443333e-05
7.2938249e-05
7.4368903e-05
8.1243004e-05
0.00010390462
0.00011042254
8.5350349e-05
7.7651374e-05
7.6014391e-05
7.5455497e-05
7.5260082e-05
7.5169389e-05
7.5151384e-05
7.5146208e-05
7.5162654e-05
7.5174702e-05
7.5193727e-05
7.5208636e-05
7.5220907e-05
7.5224356e-05
7.5224356e-05
7.5220907e-05
7.5208636e-05
7.5193727e-05
7.5174702e-05
7.5162654e-05
7.5146208e-05
7.5151384e-05
7.5169389e-05
7.5260082e-05
7.5455497e-05
7.6014391e-05
7.7651374e-05
8.535035e-05
0.00011042256
0.00011749385
8.9759295e-05
8.1153432e-05
7.928568e-05
7.8655398e-05
7.8435548e-05
7.83372e-05
7.8320854e-05
7.8320242e-05
7.834327e-05
7.8361385e-05
7.8386134e-05
7.8405644e-05
7.8421125e-05
7.8425902e-05
7.8425902e-05
7.8421125e-05
7.8405644e-05
7.8386134e-05
7.8361385e-05
7.834327e-05
7.8320242e-05
7.8320854e-05
7.83372e-05
7.8435548e-05
7.8655398e-05
7.928568e-05
8.1153432e-05
8.9759296e-05
0.00011749387
0.00012517863
9.4499293e-05
8.4893575e-05
8.276748e-05
8.2057461e-05
8.1809819e-05
8.1702557e-05
8.168762e-05
8.1692037e-05
8.1722476e-05
8.174763e-05
8.1779034e-05
8.1803954e-05
8.1823236e-05
8.1829612e-05
8.1829612e-05
8.1823236e-05
8.1803954e-05
8.1779034e-05
8.174763e-05
8.1722476e-05
8.1692037e-05
8.168762e-05
8.1702557e-05
8.1809819e-05
8.2057461e-05
8.276748e-05
8.4893575e-05
9.4499294e-05
0.00012517865
0.0001335395
9.9603826e-05
8.8893257e-05
8.6477573e-05
8.5678369e-05
8.5399114e-05
8.5281494e-05
8.5267609e-05
8.5277441e-05
8.5316073e-05
8.5349255e-05
8.5388297e-05
8.5419497e-05
8.544323e-05
8.5451502e-05
8.5451502e-05
8.544323e-05
8.5419497e-05
8.5388297e-05
8.5349255e-05
8.5316073e-05
8.5277441e-05
8.5267609e-05
8.5281494e-05
8.5399114e-05
8.5678369e-05
8.6477573e-05
8.8893257e-05
9.9603828e-05
0.00013353952
0.00014264191
0.00010511075
9.3177324e-05
9.0436496e-05
8.9537318e-05
8.9222093e-05
8.9092512e-05
8.9079228e-05
8.9094755e-05
8.9142284e-05
8.9184477e-05
8.9232173e-05
8.9270565e-05
8.9299444e-05
8.9309935e-05
8.9309935e-05
8.9299444e-05
8.9270565e-05
8.9232173e-05
8.9184477e-05
8.9142284e-05
8.9094755e-05
8.9079228e-05
8.9092512e-05
8.9222093e-05
8.9537318e-05
9.0436496e-05
9.3177324e-05
0.00010511075
0.00014264193
0.00015255502
0.00011106286
9.7774556e-05
9.466802e-05
9.3656457e-05
9.3300265e-05
9.3156917e-05
9.3143689e-05
9.3165111e-05
9.3222158e-05
9.3274295e-05
9.3331656e-05
9.3378171e-05
9.3412933e-05
9.3425988e-05
9.3425988e-05
9.3412933e-05
9.3378171e-05
9.3331656e-05
9.3274295e-05
9.3222158e-05
9.3165111e-05
9.3143689e-05
9.3156917e-05
9.3300265e-05
9.3656457e-05
9.466802e-05
9.7774556e-05
0.00011106286
0.00015255505
0.00016335308
0.0001175079
0.00010271821
9.9199687e-05
9.8061391e-05
9.7658474e-05
9.7499289e-05
9.7485437e-05
9.75129e-05
9.7580024e-05
9.7642968e-05
9.7710968e-05
9.776653e-05
9.7807939e-05
9.7823924e-05
9.7823924e-05
9.7807939e-05
9.776653e-05
9.7710968e-05
9.7642968e-05
9.7580024e-05
9.75129e-05
9.7485437e-05
9.7499289e-05
9.7658474e-05
9.8061391e-05
9.9199687e-05
0.00010271821
0.0001175079
0.00016335311
0.00017511709
0.00012449893
0.00010804654
0.00010406335
0.00010278169
0.0001023254
0.00010214798
0.00010213266
0.00010216626
0.00010224398
0.00010231852
0.00010239808
0.00010246359
0.00010251243
0.00010253173
0.00010253173
0.00010251243
0.00010246359
0.00010239808
0.00010231852
0.00010224398
0.00010216626
0.00010213266
0.00010214798
0.0001023254
0.00010278169
0.00010406335
0.00010804654
0.00012449893
0.00017511712
0.00018793683
0.00013209476
0.00011380326
0.00010929568
0.00010785137
0.00010733404
0.0001071356
0.00010711778
0.00010715756
0.00010724637
0.00010733327
0.00010742524
0.00010750154
0.00010755861
0.00010758161
0.00010758161
0.00010755861
0.00010750154
0.00010742524
0.00010733327
0.00010724637
0.00010715756
0.00010711778
0.0001071356
0.00010733404
0.00010785137
0.00010929568
0.00011380326
0.00013209477
0.00018793687
0.00020191345
0.00014036035
0.000120038
0.00011493863
0.00011330937
0.00011272218
0.00011249952
0.00011247797
0.00011252391
0.00011262428
0.00011272423
0.0001128294
0.0001129173
0.00011298337
0.0001130105
0.0001130105
0.00011298337
0.0001129173
0.0001128294
0.00011272423
0.00011262428
0.00011252391
0.00011247797
0.00011249952
0.00011272218
0.00011330937
0.00011493863
0.000120038
0.00014036035
0.00020191349
0.00021716245
0.00014936716
0.00012680666
0.00012103992
0.00011920003
0.00011853285
0.00011828226
0.00011825555
0.0001183076
0.00011841998
0.00011853365
0.00011865274
0.00011875297
0.0001188288
0.00011886047
0.00011886047
0.0001188288
0.00011875297
0.00011865274
0.00011853365
0.00011841998
0.0001183076
0.00011825555
0.00011828226
0.00011853285
0.00011920003
0.00012103992
0.00012680666
0.00014936716
0.0002171625
0.00023381683
0.00015919332
0.0001341717
0.00012765332
0.00012557342
0.00012481464
0.00012453191
0.00012449843
0.0001245565
0.00012468134
0.0001248094
0.00012494309
0.00012505632
0.00012514259
0.00012517921
0.00012517921
0.00012514259
0.00012505632
0.00012494309
0.0001248094
0.00012468134
0.0001245565
0.00012449843
0.00012453191
0.00012481464
0.00012557342
0.00012765332
0.0001341717
0.00015919332
0.00023381688
0.00025203092
0.00016992414
0.0001422024
0.00013483892
0.00013248555
0.00013162191
0.00013130227
0.00013126024
0.00013132424
0.00013146201
0.00013160513
0.00013175405
0.00013188091
0.00013197825
0.00013202022
0.00013202022
0.00013197825
0.00013188091
0.00013175405
0.00013160513
0.00013146201
0.00013132424
0.00013126024
0.00013130227
0.00013162191
0.00013248555
0.00013483892
0.0001422024
0.00016992415
0.00025203098
0.00027198502
0.00018165286
0.00015097512
0.00014266325
0.00013999846
0.00013901484
0.0001386529
0.00013860036
0.00013867017
0.00013882133
0.00013898019
0.00013914496
0.00013928599
0.00013939496
0.00013944264
0.00013944264
0.00013939496
0.00013928599
0.00013914496
0.00013898019
0.00013882133
0.00013867017
0.00013860036
0.0001386529
0.00013901484
0.00013999846
0.00014266325
0.00015097512
0.00018165286
0.00027198508
0.00029389071
0.00019448193
0.00016057381
0.00015119969
0.00014818061
0.00014705988
0.00014664951
0.00014658425
0.00014665972
0.00014682471
0.00014699997
0.00014718117
0.00014733688
0.00014745789
0.00014751161
0.00014751161
0.00014745789
0.00014733688
0.00014718117
0.00014699997
0.00014682471
0.00014665972
0.00014658425
0.00014664951
0.00014705988
0.00014818061
0.00015119969
0.00016057381
0.00019448194
0.00029389078
0.0003179966
0.0002085241
0.00017109047
0.00016052867
0.00015710706
0.00015582987
0.0001553641
0.00015528364
0.00015536457
0.00015554381
0.00015573609
0.00015593425
0.00015610507
0.00015623852
0.00015629855
0.00015629855
0.00015623852
0.00015610507
0.00015593425
0.00015573609
0.00015554381
0.00015536457
0.00015528364
0.0001553641
0.00015582987
0.00015710706
0.00016052867
0.00017109047
0.0002085241
0.00031799668
0.00034459557
0.0002239034
0.00018262563
0.00017073798
0.00016685964
0.00016540408
0.00016487497
0.0001647765
0.00016486261
0.0001650565
0.00016526644
0.0001654821
0.00016566844
0.00016581465
0.0001658812
0.0001658812
0.00016581465
0.00016566844
0.0001654821
0.00016526644
0.0001650565
0.00016486261
0.0001647765
0.00016487497
0.00016540408
0.00016685964
0.00017073798
0.00018262563
0.00022390341
0.00034459565
0.00037403328
0.00024075776
0.00019528955
0.00018192348
0.00017752741
0.00017586864
0.00017526702
0.00017514734
0.00017523825
0.00017544718
0.0001756755
0.00017590922
0.00017611151
0.00017627075
0.00017634393
0.00017634393
0.00017627075
0.00017611151
0.00017590922
0.0001756755
0.00017544718
0.00017523824
0.00017514734
0.00017526702
0.00017586864
0.00017752741
0.00018192348
0.00019528955
0.00024075776
0.00037403338
0.00040671721
0.00025924148
0.00020920342
0.00019418964
0.00018920702
0.00018731681
0.0001866321
0.00018648743
0.00018658263
0.00018680707
0.00018705453
0.00018730693
0.00018752561
0.00018769809
0.00018777795
0.00018777795
0.00018769809
0.00018752561
0.00018730693
0.00018705453
0.00018680707
0.00018658263
0.00018648743
0.0001866321
0.0001873168
0.00018920702
0.00019418964
0.00020920342
0.00025924148
0.00040671732
0.00044312849
0.00027952799
0.00022450074
0.0002076504
0.00020200329
0.00019984944
0.00019906929
0.00019889523
0.00019899405
0.00019923449
0.00019950193
0.00019977368
0.00020000925
0.00020019516
0.00020028171
0.00020028171
0.00020019516
0.00020000925
0.00019977368
0.00019950193
0.00019923449
0.00019899405
0.00019889523
0.00019906929
0.00019984944
0.00020200329
0.0002076504
0.00022450074
0.000279528
0.00044312861
0.00048383782
0.00030181356
0.00024132968
0.00022243075
0.00021603043
0.00021357601
0.00021268594
0.00021247731
0.00021257887
0.00021283577
0.00021312408
0.00021341597
0.00021366902
0.00021386859
0.00021396181
0.00021396181
0.00021386859
0.00021366902
0.00021341597
0.00021312408
0.00021283577
0.00021257887
0.00021247731
0.00021268594
0.00021357601
0.00021603042
0.00022243075
0.00024132968
0.00030181357
0.00048383796
0.00052952133
0.00032632173
0.00025985554
0.00023866829
0.00023141327
0.00022861561
0.00022759854
0.0002273492
0.0002274523
0.00022772609
0.00022803624
0.00022834918
0.00022862043
0.00022883395
0.00022893387
0.00022893387
0.00022883395
0.00022862043
0.00022834918
0.00022803624
0.00022772609
0.0002274523
0.0002273492
0.00022759854
0.00022861561
0.00023141327
0.00023866829
0.00025985555
0.00032632174
0.00052952149
0.00058098057
0.00035330847
0.00028026373
0.00025651522
0.00024828877
0.00024509819
0.0002439339
0.00024363648
0.00024373948
0.00024403052
0.00024436356
0.00024469861
0.00024498898
0.00024521694
0.00024532362
0.00024532362
0.00024521694
0.00024498898
0.00024469861
0.00024436356
0.00024403052
0.00024373948
0.00024363648
0.00024393389
0.00024509818
0.00024828877
0.00025651522
0.00028026373
0.00035330848
0.00058098075
0.00063916468
0.00038306871
0.00030276384
0.00027614115
0.00026680812
0.00026316653
0.00026183099
0.00026147653
0.00026157726
0.00026188582
0.00026224289
0.00026260129
0.00026291195
0.00026315499
0.00026326858
0.00026326858
0.00026315499
0.00026291195
0.00026260129
0.00026224289
0.00026188582
0.00026157726
0.00026147653
0.00026183099
0.00026316653
0.00026680812
0.00027614115
0.00030276384
0.00038306872
0.00063916488
0.00070519851
0.00041594358
0.00032759385
0.0002977361
0.00028713877
0.00028297778
0.00028144224
0.00028101986
0.00028111564
0.00028144213
0.00028182452
0.00028220769
0.00028254
0.0002827989
0.00028291963
0.00028291963
0.0002827989
0.00028254
0.00028220769
0.00028182452
0.00028144213
0.00028111564
0.00028101986
0.00028144224
0.00028297778
0.00028713876
0.0002977361
0.00032759385
0.00041594359
0.00070519875
0.00078041311
0.00045232969
0.00035502502
0.00032151386
0.00030946746
0.0003047066
0.0003029367
0.00030243312
0.00030252008
0.00030286464
0.00030327405
0.00030368365
0.00030403922
0.00030431494
0.00030444315
0.00030444315
0.00030431494
0.00030403922
0.00030368365
0.00030327405
0.00030286464
0.00030252008
0.00030243312
0.0003029367
0.0003047066
0.00030946746
0.00032151385
0.00035502502
0.00045232971
0.00078041338
0.00086638349
0.00049269114
0.00038536983
0.00034771695
0.0003340045
0.00032854829
0.00032650268
0.00032590158
0.00032597459
0.0003263369
0.00032677536
0.00032721344
0.00032759423
0.00032788798
0.00032802415
0.00032802415
0.00032788798
0.00032759423
0.00032721344
0.00032677536
0.0003263369
0.00032597459
0.00032590158
0.00032650268
0.00032854829
0.00033400449
0.00034771694
0.00038536983
0.00049269116
0.0008663838
0.00096496943
0.00053757134
0.00041898713
0.00037662188
0.00036098712
0.00035472189
0.00035235062
0.00035163188
0.00035168435
0.00035206379
0.00035253304
0.00035300257
0.0003534109
0.0003537242
0.00035386896
0.00035386896
0.0003537242
0.00035341089
0.00035300256
0.00035253304
0.00035206379
0.00035168435
0.00035163188
0.00035235062
0.00035472189
0.00036098711
0.00037662188
0.00041898713
0.00053757136
0.00096496979
0.0010783603
0.00058760879
0.0004562881
0.00040854368
0.00039068367
0.00038347367
0.00038071633
0.00037985526
0.0003798788
0.00038027436
0.00038077636
0.0003812806
0.00038171945
0.00038205416
0.00038220831
0.00038220831
0.00038205416
0.00038171945
0.0003812806
0.00038077636
0.00038027436
0.00037987879
0.00037985526
0.00038071633
0.00038347367
0.00039068366
0.00040854368
0.0004562881
0.00058760881
0.0010783607
0.0012091282
0.00064354952
0.00049774502
0.00044384276
0.00042339934
0.00041508223
0.00041186565
0.00041083185
0.00041081583
0.00041122597
0.00041176289
0.00041230519
0.00041277842
0.00041313698
0.00041330156
0.00041330156
0.00041313698
0.00041277842
0.00041230519
0.00041176289
0.00041122597
0.00041081583
0.00041083185
0.00041186565
0.00041508222
0.00042339934
0.00044384276
0.00049774502
0.00064354954
0.0012091286
0.0013602781
0.00070626482
0.00054390065
0.00048293133
0.00045948151
0.0004498632
0.00044609879
0.00044485486
0.0004447858
0.00044520823
0.00044578244
0.00044636664
0.00044687813
0.00044726335
0.00044743967
0.00044743967
0.00044726335
0.00044687813
0.00044636664
0.00044578243
0.00044520822
0.0004447858
0.00044485486
0.00044609878
0.0004498632
0.00045948151
0.00048293133
0.00054390064
0.00070626484
0.0013602786
0.0015353034
0.00077676882
0.0005953777
0.00052628068
0.0004993254
0.00048817434
0.00048375504
0.00048225495
0.00048211573
0.00048254713
0.00048316117
0.00048379171
0.000484346
0.00048476123
0.00048495093
0.00048495093
0.00048476123
0.000484346
0.00048379171
0.00048316117
0.00048254713
0.00048211573
0.00048225494
0.00048375504
0.00048817434
0.0004993254
0.00052628068
0.00059537769
0.00077676885
0.001535304
0.0017382467
0.000856237
0.00065289154
0.00057443006
0.00054338168
0.00053042193
0.0005252187
0.00052340606
0.00052317509
0.00052361079
0.00052426733
0.00052494938
0.00052555173
0.00052600084
0.00052620584
0.00052620584
0.00052600084
0.00052555172
0.00052494938
0.00052426733
0.00052361078
0.00052317509
0.00052340606
0.00052521869
0.00053042192
0.00054338168
0.00057443006
0.00065289153
0.00085623703
0.0017382474
0.001973767
0.00094603663
0.00071726025
0.0006279947
0.00059216345
0.0005770668
0.00057092443
0.0005687306
0.00056838085
0.00056881433
0.00056951606
0.00057025551
0.00057091189
0.00057139937
0.00057162198
0.00057162198
0.00057139937
0.00057091189
0.00057025551
0.00056951605
0.00056881432
0.00056838084
0.00056873059
0.00057092442
0.00057706679
0.00059216345
0.0006279947
0.00071726025
0.00094603666
0.0019737678
0.0022472045
0.0010477129
0.00078940713
0.00068767381
0.00064625337
0.00062863084
0.0006213633
0.00061870478
0.00061820257
0.00061862491
0.00061937417
0.0006201776
0.00062089492
0.00062142603
0.000621669
0.000621669
0.00062142602
0.00062089492
0.0006201776
0.00061937417
0.00061862491
0.00061820257
0.00061870477
0.00062136329
0.00062863084
0.00064625336
0.0006876738
0.00078940713
0.0010477129
0.0022472054
0.0025646532
0.0011630187
0.00087037578
0.00075425983
0.00070631237
0.0006857052
0.00067709036
0.0006738659
0.00067316941
0.00067356858
0.00067436712
0.00067524164
0.0006760278
0.00067660865
0.00067687521
0.00067687521
0.00067660864
0.00067602779
0.00067524164
0.00067436712
0.00067356857
0.0006731694
0.00067386589
0.00067709036
0.0006857052
0.00070631237
0.00075425982
0.00087037577
0.0011630187
0.0025646543
0.0029330389
0.0012939453
0.00096133873
0.0008286459
0.00077308748
0.00074895741
0.00073873122
0.00073481855
0.00073387611
0.00073423614
0.00073508475
0.00073603791
0.0007369017
0.00073753933
0.00073783321
0.00073783321
0.00073753933
0.0007369017
0.0007360379
0.00073508474
0.00073423614
0.0007338761
0.00073481854
0.00073873121
0.00074895741
0.00077308747
0.00082864589
0.00096133872
0.0012939454
0.0029330402
0.0033602047
0.0014427311
0.0010636039
0.00091183292
0.00084741924
0.00081913833
0.00080698831
0.00080224063
0.0008009888
0.00080128884
0.00080218686
0.00080322638
0.0008041775
0.00080487987
0.00080520532
0.00080520532
0.00080487987
0.0008041775
0.00080322638
0.00080218686
0.00080128883
0.00080098879
0.00080224062
0.0008069883
0.00081913832
0.00084741923
0.00091183291
0.0010636039
0.0014427312
0.0033602062
0.0038550219
0.0016118795
0.0011786218
0.0010049386
0.00093025076
0.00089709089
0.00088264935
0.0008768912
0.00087525258
0.00087546576
0.00087641057
0.00087754406
0.00087859297
0.0008793689
0.00087973065
0.00087973065
0.0008793689
0.00087859296
0.00087754406
0.00087641057
0.00087546575
0.00087525258
0.00087689119
0.00088264934
0.00089709088
0.00093025075
0.0010049386
0.0011786218
0.0016118795
0.0038550236
0.0044275034
0.001804176
0.0013079944
0.001109204
0.0010226344
0.0009837571
0.00096659415
0.00095961676
0.0009574974
0.00095758948
0.00095857578
0.00095981041
0.00096096811
0.00096182721
0.00096223044
0.00096223044
0.00096182721
0.00096096811
0.0009598104
0.00095857577
0.00095758947
0.00095749739
0.00095961676
0.00096659414
0.0009837571
0.0010226344
0.001109204
0.0013079944
0.0018041761
0.0044275055
0.0050889301
0.0020227056
0.0014534469
0.0012259981
0.0011257375
0.0010801843
0.0010598007
0.001051357
0.0010486433
0.001048571
0.00104959
0.0010509321
0.0010522101
0.0010531626
0.001053613
0.001053613
0.0010531626
0.0010522101
0.0010509321
0.0010495899
0.001048571
0.0010486433
0.001051357
0.0010598007
0.0010801843
0.0011257375
0.0012259981
0.0014534469
0.0020227057
0.0050889325
0.0058520116
0.0022708734
0.0016168671
0.0013568234
0.0012408506
0.0011875333
0.0011633529
0.0011531524
0.0011497082
0.0011494172
0.0011504552
0.0011519101
0.00115332
0.0011543768
0.0011548802
0.0011548802
0.0011543768
0.00115332
0.0011519101
0.0011504552
0.0011494172
0.0011497082
0.0011531524
0.0011633529
0.0011875333
0.0012408506
0.0013568234
0.0016168671
0.0022708735
0.0058520144
0.0067310227
0.0025524251
0.0018003093
0.0015033181
0.0013693921
0.0013070836
0.0012784459
0.0012661499
0.0012618127
0.0012612355
0.001262273
0.0012638439
0.0012653972
0.0012665694
0.0012671322
0.0012671322
0.0012665694
0.0012653972
0.0012638439
0.001262273
0.0012612355
0.0012618127
0.0012661499
0.0012784458
0.0013070836
0.0013693921
0.0015033181
0.0018003093
0.0025524252
0.0067310259
0.0077420036
0.0028714673
0.0020059834
0.0016672548
0.0015129104
0.0014402373
0.00140639
0.0013916065
0.001386184
0.0013852378
0.0013862479
0.0013879351
0.0013896427
0.0013909416
0.0013915703
0.0013915703
0.0013909416
0.0013896427
0.0013879351
0.0013862479
0.0013852378
0.001386184
0.0013916064
0.00140639
0.0014402373
0.0015129103
0.0016672548
0.0020059834
0.0028714675
0.0077420073
0.0089030718
0.0032325023
0.0022362586
0.0018505477
0.0016730879
0.0015885251
0.0015486182
0.0015308961
0.0015241625
0.0015227464
0.0015236934
0.0015254936
0.0015273652
0.0015288018
0.001529503
0.001529503
0.0015288018
0.0015273652
0.0015254936
0.0015236934
0.0015227464
0.0015241625
0.0015308961
0.0015486182
0.0015885251
0.0016730879
0.0018505477
0.0022362586
0.0032325024
0.0089030762
0.010234669
0.0036404563
0.0024936606
0.0020552501
0.0018517421
0.0017536086
0.0017066885
0.0016855128
0.0016772043
0.0016751967
0.0016760345
0.0016779396
0.001679983
0.0016815678
0.0016823482
0.0016823482
0.0016815678
0.001679983
0.0016779396
0.0016760345
0.0016751966
0.0016772043
0.0016855128
0.0017066885
0.0017536086
0.0018517421
0.00205525
0.0024936606
0.0036404565
0.010234674
0.011759863
0.0041007102
0.0027808707
0.0022835431
0.0020508234
0.00193728
0.0018822846
0.0018570711
0.0018468826
0.001844138
0.0018448083
0.0018468043
0.0018490245
0.0018507674
0.0018516333
0.0018516333
0.0018507674
0.0018490245
0.0018468043
0.0018448083
0.001844138
0.0018468826
0.0018570711
0.0018822846
0.00193728
0.0020508233
0.002283543
0.0027808706
0.0041007105
0.011759869
0.013504744
0.0046191384
0.003100729
0.00253774
0.0022724163
0.0021414655
0.0020772204
0.0020473113
0.0020348921
0.0020312388
0.0020316684
0.0020337338
0.0020361325
0.002038042
0.0020389994
0.0020389994
0.002038042
0.0020361325
0.0020337338
0.0020316684
0.0020312388
0.0020348921
0.0020473113
0.0020772204
0.0021414655
0.0022724163
0.0025377399
0.003100729
0.0046191387
0.013504751
0.015498794
0.0052021715
0.003456232
0.0028202728
0.0025187336
0.0023682226
0.0022934387
0.0022580979
0.0022430479
0.0022382847
0.0022383837
0.0022404881
0.0022430627
0.0022451454
0.0022461997
0.0022461997
0.0022451454
0.0022430626
0.002240488
0.0022383837
0.0022382847
0.0022430478
0.0022580979
0.0022934387
0.0023682226
0.0025187336
0.0028202727
0.0034562319
0.0052021719
0.015498802
0.017775405
0.0058581847
0.003850537
0.003133681
0.0027921072
0.0026197336
0.0025330055
0.0024914153
0.0024732812
0.0024671744
0.0024668338
0.002468936
0.0024716784
0.0024739387
0.0024750945
0.0024750945
0.0024739387
0.0024716784
0.002468936
0.0024668338
0.0024671743
0.0024732812
0.0024914153
0.0025330055
0.0026197335
0.0027921071
0.003133681
0.0038505369
0.0058581851
0.017775414
0.020372243
0.0065959514
0.0042869667
0.0034806142
0.003094985
0.0028983018
0.0027981095
0.0027493689
0.0027276411
0.0027199214
0.0027190111
0.002721058
0.0027239539
0.0027263932
0.0027276538
0.0027276538
0.0027263932
0.0027239538
0.002721058
0.0027190111
0.0027199214
0.0027276411
0.0027493689
0.0027981095
0.0028983018
0.0030949849
0.0034806142
0.0042869666
0.0065959519
0.020372254
0.023331526
0.0074237712
0.0047689856
0.0038638228
0.0034299225
0.0032063494
0.0030910625
0.0030341859
0.0030082959
0.002998656
0.0029970222
0.0029989472
0.0030019749
0.0030045912
0.0030059586
0.0030059586
0.0030045912
0.0030019749
0.0029989472
0.0029970222
0.002998656
0.0030082959
0.0030341859
0.0030910624