/*--------------------------------*- C++ -*----------------------------------*\
  =========                 |
  \\      /  F ield         | OpenFOAM: The Open Source CFD Toolbox
   \\    /   O peration     | Website:  https://openfoam.org
    \\  /    A nd           | Version:  8
     \\/     M anipulation  |
\*---------------------------------------------------------------------------*/
/*   Windows 32 and 64 bit porting by blueCAPE: http://www.bluecape.com.pt   *\
|  Based on Windows porting (2.0.x v4) by Symscape: http://www.symscape.com   |
\*---------------------------------------------------------------------------*/
FoamFile
{
    version     2.0;
    format      ascii;
    class       volScalarField;
    location    "90";
    object      k_0;
}
// * * * * * * * * * * * * * * * * * * * * * * * * * * * * * * * * * * * * * //

dimensions      [0 2 -2 0 0 0 0];

internalField   nonuniform List<scalar> 
283500
(
0.0041388927
0.0041380013
0.0041379478
0.0041379352
0.0041379308
0.0041379268
0.0041379238
0.0041379219
0.0041379204
0.0041379194
0.0041379186
0.0041379182
0.0041379179
0.0041379177
0.0041379177
0.0041379177
0.0041379177
0.0041379179
0.0041379182
0.0041379186
0.0041379194
0.0041379204
0.0041379219
0.0041379238
0.0041379268
0.0041379308
0.0041379352
0.0041379478
0.0041380013
0.0041388927
0.0041378513
0.0041362591
0.0041361321
0.0041361206
0.0041361161
0.0041361075
0.0041361006
0.004136096
0.0041360924
0.00413609
0.0041360881
0.004136087
0.0041360862
0.0041360859
0.0041360856
0.0041360856
0.0041360859
0.0041360862
0.004136087
0.0041360881
0.00413609
0.0041360924
0.004136096
0.0041361006
0.0041361075
0.0041361161
0.0041361206
0.0041361321
0.0041362591
0.0041378513
0.0041382985
0.0041352393
0.0041349869
0.0041349438
0.0041349369
0.0041349275
0.0041349192
0.0041349123
0.0041349065
0.0041349025
0.0041348993
0.0041348974
0.0041348961
0.0041348955
0.0041348951
0.0041348951
0.0041348955
0.0041348961
0.0041348974
0.0041348993
0.0041349025
0.0041349065
0.0041349123
0.0041349192
0.0041349275
0.0041349369
0.0041349438
0.0041349869
0.0041352393
0.0041382985
0.0041410421
0.0041354059
0.0041349337
0.0041348721
0.0041348741
0.0041348607
0.0041348515
0.0041348426
0.0041348342
0.0041348281
0.0041348228
0.0041348195
0.0041348172
0.004134816
0.0041348152
0.0041348152
0.004134816
0.0041348172
0.0041348195
0.0041348228
0.0041348281
0.0041348342
0.0041348426
0.0041348515
0.0041348607
0.0041348741
0.0041348721
0.0041349337
0.0041354059
0.0041410422
0.0041465826
0.0041371387
0.0041363086
0.0041362351
0.0041362553
0.0041362442
0.0041362375
0.0041362247
0.0041362126
0.0041362043
0.004136197
0.0041361922
0.0041361887
0.0041361869
0.0041361857
0.0041361857
0.0041361869
0.0041361887
0.0041361922
0.004136197
0.0041362043
0.0041362126
0.0041362247
0.0041362375
0.0041362442
0.0041362553
0.0041362351
0.0041363086
0.0041371387
0.0041465826
0.0041552478
0.0041407435
0.0041393705
0.0041392897
0.0041393357
0.004139334
0.0041393359
0.0041393239
0.0041393108
0.0041392994
0.0041392894
0.0041392824
0.0041392776
0.0041392752
0.0041392736
0.0041392736
0.0041392752
0.0041392776
0.0041392824
0.0041392894
0.0041392994
0.0041393108
0.0041393239
0.0041393359
0.004139334
0.0041393357
0.0041392897
0.0041393705
0.0041407435
0.0041552478
0.0041672655
0.0041465158
0.004144355
0.0041442802
0.00414436
0.00414438
0.0041443956
0.0041443895
0.0041443781
0.0041443656
0.0041443532
0.004144344
0.0041443373
0.0041443335
0.0041443312
0.0041443312
0.0041443335
0.0041443373
0.004144344
0.0041443532
0.0041443656
0.0041443781
0.0041443895
0.0041443956
0.00414438
0.00414436
0.0041442802
0.004144355
0.0041465158
0.0041672655
0.0041828019
0.0041547308
0.0041514971
0.0041514252
0.0041515495
0.0041516089
0.0041516444
0.0041516498
0.0041516425
0.0041516309
0.0041516166
0.0041516054
0.0041515965
0.0041515911
0.004151588
0.004151588
0.0041515911
0.0041515965
0.0041516054
0.0041516166
0.0041516309
0.0041516425
0.0041516498
0.0041516444
0.0041516089
0.0041515495
0.0041514252
0.0041514971
0.0041547308
0.004182802
0.0042019738
0.0041656237
0.0041609998
0.0041609083
0.0041610876
0.0041612052
0.0041612685
0.0041612932
0.0041612932
0.0041612851
0.0041612706
0.0041612581
0.0041612472
0.0041612401
0.004161236
0.004161236
0.0041612401
0.0041612472
0.0041612581
0.0041612706
0.0041612851
0.0041612932
0.0041612932
0.0041612685
0.0041612052
0.0041610876
0.0041609083
0.0041609998
0.0041656237
0.0042019739
0.0042248723
0.0041793888
0.0041730354
0.0041728852
0.004173127
0.0041733193
0.0041734193
0.004173472
0.0041734842
0.0041734827
0.0041734698
0.0041734575
0.0041734452
0.0041734364
0.0041734314
0.0041734314
0.0041734364
0.0041734452
0.0041734575
0.0041734698
0.0041734827
0.0041734842
0.004173472
0.0041734193
0.0041733193
0.004173127
0.0041728852
0.0041730354
0.0041793888
0.0042248723
0.0042515813
0.0041961884
0.0041877536
0.004187491
0.0041878001
0.0041880802
0.0041882254
0.0041883151
0.004188345
0.0041883538
0.0041883448
0.0041883341
0.0041883216
0.0041883116
0.0041883058
0.0041883058
0.0041883116
0.0041883216
0.0041883341
0.0041883448
0.0041883538
0.004188345
0.0041883151
0.0041882254
0.0041880802
0.0041878001
0.004187491
0.0041877536
0.0041961884
0.0042515813
0.0042821839
0.0042161594
0.0042052837
0.0042048454
0.0042052242
0.0042056016
0.0042057996
0.0042059348
0.0042059883
0.0042060118
0.0042060094
0.0042060019
0.0042059902
0.0042059797
0.0042059734
0.0042059734
0.0042059797
0.0042059902
0.0042060019
0.0042060094
0.0042060118
0.0042059883
0.0042059348
0.0042057996
0.0042056016
0.0042052242
0.0042048454
0.0042052837
0.0042161594
0.0042821839
0.0043167711
0.0042394167
0.0042257353
0.0042250557
0.0042255051
0.0042259854
0.0042262426
0.0042264311
0.0042265141
0.0042265572
0.0042265646
0.0042265622
0.0042265527
0.0042265422
0.0042265357
0.0042265357
0.0042265422
0.0042265527
0.0042265622
0.0042265646
0.0042265572
0.0042265141
0.0042264311
0.0042262426
0.0042259854
0.0042255051
0.0042250557
0.0042257353
0.0042394167
0.0043167712
0.0043554475
0.0042660591
0.0042492052
0.0042482189
0.0042487392
0.0042493251
0.0042496458
0.0042498942
0.0042500126
0.0042500803
0.0042501014
0.0042501063
0.0042501009
0.0042500912
0.0042500847
0.0042500847
0.0042500912
0.0042501009
0.0042501063
0.0042501014
0.0042500803
0.0042500126
0.0042498942
0.0042496458
0.0042493251
0.0042487392
0.0042482189
0.0042492052
0.0042660591
0.0043554476
0.0043983252
0.004296178
0.0042757795
0.0042744257
0.0042750164
0.0042757078
0.0042760953
0.0042764081
0.004276567
0.0042766644
0.0042767034
0.0042767185
0.0042767197
0.0042767121
0.0042767057
0.0042767057
0.0042767121
0.0042767197
0.0042767185
0.0042767034
0.0042766644
0.004276567
0.0042764081
0.0042760953
0.0042757078
0.0042750164
0.0042744257
0.0042757795
0.004296178
0.0043983253
0.0044455225
0.0043298609
0.0043055391
0.0043037611
0.0043044218
0.0043052169
0.0043056733
0.0043060535
0.0043062569
0.0043063884
0.0043064497
0.0043064784
0.0043064892
0.0043064855
0.0043064796
0.0043064796
0.0043064855
0.0043064892
0.0043064784
0.0043064497
0.0043063884
0.0043062569
0.0043060535
0.0043056733
0.0043052169
0.0043044218
0.0043037611
0.0043055391
0.0043298609
0.0044455226
0.0044971622
0.004367193
0.004338561
0.0043363041
0.0043370381
0.0043379359
0.0043384615
0.00433891
0.0043391602
0.0043393297
0.0043394173
0.0043394631
0.004339487
0.0043394895
0.0043394848
0.0043394848
0.0043394895
0.004339487
0.0043394631
0.0043394173
0.0043393297
0.0043391602
0.00433891
0.0043384615
0.0043379359
0.0043370381
0.0043363041
0.004338561
0.004367193
0.0044971623
0.0045533685
0.0044082571
0.0043749193
0.0043721296
0.0043729463
0.004373949
0.0043745421
0.004375058
0.0043753557
0.0043755655
0.0043756829
0.0043757492
0.0043757899
0.0043758011
0.0043757985
0.0043757985
0.0043758011
0.0043757899
0.0043757492
0.0043756829
0.0043755655
0.0043753557
0.004375058
0.0043745421
0.004373949
0.0043729463
0.0043721296
0.0043749193
0.0044082571
0.0045533686
0.0046142649
0.0044531348
0.0044146868
0.0044113113
0.0044122273
0.0044133413
0.004413999
0.0044145797
0.0044149239
0.0044151746
0.0044153242
0.0044154141
0.0044154752
0.0044154978
0.0044154983
0.0044154983
0.0044154978
0.0044154752
0.0044154141
0.0044153242
0.0044151746
0.0044149239
0.0044145797
0.004413999
0.0044133413
0.0044122273
0.0044113113
0.0044146868
0.0044531348
0.0046142651
0.0046799713
0.0045019069
0.004457938
0.0044539238
0.0044549607
0.004456198
0.0044569186
0.00445756
0.0044579483
0.0044582392
0.0044584218
0.0044585374
0.0044586221
0.0044586591
0.0044586637
0.0044586637
0.0044586591
0.0044586221
0.0044585374
0.0044584218
0.0044582392
0.0044579483
0.00445756
0.0044569186
0.004456198
0.0044549607
0.0044539238
0.004457938
0.0045019069
0.0046799715
0.0047506024
0.0045546546
0.0045047498
0.0045000439
0.0045012266
0.0045026049
0.0045033897
0.0045040867
0.0045045154
0.0045048449
0.0045050601
0.0045052022
0.004505313
0.0045053671
0.0045053767
0.0045053767
0.0045053671
0.004505313
0.0045052022
0.0045050601
0.0045048449
0.0045045154
0.0045040867
0.0045033897
0.0045026049
0.0045012266
0.0045000439
0.0045047498
0.0045546546
0.0047506026
0.0048262695
0.0046114587
0.0045552023
0.0045497524
0.0045511088
0.0045526501
0.0045535032
0.0045542514
0.0045547159
0.0045550809
0.0045553272
0.0045554958
0.0045556342
0.0045557076
0.004555723
0.004555723
0.0045557076
0.0045556342
0.0045554958
0.0045553272
0.0045550809
0.0045547159
0.0045542514
0.0045535032
0.0045526501
0.0045511088
0.0045497524
0.0045552023
0.0046114587
0.0048262698
0.0049070838
0.0046723998
0.0046093789
0.0046031333
0.0046046946
0.0046064238
0.0046073529
0.00460815
0.0046086445
0.00460904
0.0046093147
0.0046095086
0.0046096753
0.0046097701
0.0046097917
0.0046097917
0.0046097701
0.0046096753
0.0046095086
0.0046093147
0.00460904
0.0046086445
0.00460815
0.0046073529
0.0046064238
0.0046046946
0.0046031333
0.0046093789
0.0046723998
0.004907084
0.0049931616
0.0047375577
0.0046673663
0.0046602734
0.0046620727
0.0046640175
0.0046650354
0.0046658821
0.0046664001
0.0046668185
0.0046671169
0.0046673338
0.0046675283
0.004667646
0.0046676741
0.0046676741
0.004667646
0.0046675283
0.0046673338
0.0046671169
0.0046668185
0.0046664001
0.0046658821
0.0046650354
0.0046640175
0.0046620727
0.0046602734
0.0046673663
0.0047375577
0.0049931619
0.0050846311
0.0048070153
0.0047292554
0.0047212639
0.004723336
0.0047255259
0.0047266496
0.0047275501
0.0047280853
0.0047285177
0.0047288327
0.0047290683
0.0047292885
0.0047294294
0.0047294639
0.0047294639
0.0047294294
0.0047292885
0.0047290683
0.0047288327
0.0047285177
0.0047280853
0.0047275501
0.0047266496
0.0047255259
0.004723336
0.0047212639
0.0047292554
0.0048070153
0.0050846315
0.0051816381
0.0048808468
0.0047951397
0.004786201
0.0047885826
0.004791049
0.0047922981
0.0047932592
0.0047938075
0.0047942445
0.0047945668
0.0047948145
0.0047950564
0.0047952196
0.0047952597
0.0047952597
0.0047952196
0.0047950564
0.0047948145
0.0047945668
0.0047942445
0.0047938075
0.0047932592
0.0047922981
0.004791049
0.0047885826
0.004786201
0.0047951397
0.0048808468
0.0051816384
0.0052843488
0.0049591207
0.0048651141
0.0048551841
0.0048579151
0.0048606913
0.0048620871
0.0048631174
0.0048636769
0.0048641104
0.0048644296
0.004864681
0.0048649387
0.0048651217
0.0048651659
0.0048651659
0.0048651217
0.0048649387
0.004864681
0.0048644296
0.0048641104
0.0048636769
0.0048631174
0.0048620871
0.0048606913
0.0048579151
0.0048551841
0.0048651141
0.0049591207
0.0052843492
0.0053929536
0.0050419022
0.0049392755
0.0049283152
0.0049314386
0.0049345602
0.0049361251
0.0049372343
0.0049378052
0.0049382288
0.004938534
0.0049387794
0.0049390456
0.0049392448
0.0049392907
0.0049392907
0.0049392448
0.0049390456
0.0049387794
0.004938534
0.0049382288
0.0049378052
0.0049372343
0.0049361251
0.0049345602
0.0049314386
0.0049283152
0.0049392755
0.0050419022
0.0053929541
0.0055076756
0.0051292555
0.0050177233
0.0050056994
0.0050092614
0.0050127666
0.0050145228
0.0050157211
0.0050163049
0.0050167133
0.0050169942
0.005017223
0.0050174892
0.0050176993
0.0050177443
0.0050177443
0.0050176993
0.0050174892
0.005017223
0.0050169942
0.0050167133
0.0050163049
0.0050157211
0.0050145228
0.0050127666
0.0050092614
0.0050056994
0.0050177233
0.0051292555
0.0055076761
0.0056287773
0.0052212434
0.0051005592
0.005087446
0.0050914965
0.0050954256
0.0050973951
0.0050986926
0.0050992915
0.0050996807
0.0050999276
0.0051001285
0.0051003849
0.0051005994
0.0051006399
0.0051006399
0.0051005994
0.0051003849
0.0051001285
0.0050999276
0.0050996807
0.0050992915
0.0050986926
0.0050973951
0.0050954256
0.0050914965
0.005087446
0.0051005592
0.0052212434
0.0056287778
0.005756559
0.0053179208
0.0051878861
0.0051736668
0.0051782604
0.0051826552
0.0051848602
0.0051862679
0.0051868848
0.0051872518
0.0051874562
0.0051876179
0.0051878541
0.0051880652
0.005188097
0.005188097
0.0051880652
0.0051878541
0.0051876179
0.0051874562
0.0051872518
0.0051868848
0.0051862679
0.0051848602
0.0051826552
0.0051782604
0.0051736668
0.0051878861
0.0053179209
0.0057565596
0.0058913654
0.005419335
0.0052798078
0.005264475
0.0052696704
0.0052745736
0.0052770367
0.0052785659
0.0052792045
0.0052795475
0.0052797023
0.0052798143
0.0052800196
0.005280219
0.0052802384
0.0052802384
0.005280219
0.0052800196
0.0052798143
0.0052797023
0.0052795475
0.0052792045
0.0052785659
0.0052770367
0.0052745736
0.0052696704
0.005264475
0.0052798078
0.0054193351
0.005891366
0.0060335992
0.005525529
0.0053764287
0.0053599834
0.005365842
0.0053712972
0.005374041
0.0053757027
0.0053763665
0.0053766841
0.0053767835
0.0053768364
0.0053770002
0.0053771787
0.0053771822
0.0053771822
0.0053771787
0.0053770002
0.0053768364
0.0053767835
0.0053766841
0.0053763665
0.0053757027
0.005374041
0.0053712972
0.005365842
0.0053599834
0.0053764287
0.005525529
0.0060335999
0.0061837323
0.0056365486
0.0054778578
0.0054603071
0.0054668938
0.0054729463
0.0054759931
0.0054777974
0.0054784887
0.0054787789
0.0054788175
0.005478803
0.0054789154
0.0054790632
0.0054790476
0.0054790476
0.0054790632
0.0054789154
0.005478803
0.0054788175
0.0054787789
0.0054784887
0.0054777974
0.0054759931
0.0054729463
0.0054668938
0.0054603071
0.0054778578
0.0056365486
0.006183733
0.0063423141
0.005752442
0.0055842099
0.0055655657
0.005572949
0.0055796457
0.0055830181
0.0055849738
0.0055856938
0.0055859538
0.0055859264
0.0055858372
0.0055858889
0.0055859976
0.0055859604
0.0055859604
0.0055859976
0.0055858889
0.0055858372
0.0055859264
0.0055859538
0.0055856938
0.0055849738
0.0055830181
0.0055796457
0.005572949
0.0055655657
0.0055842099
0.005752442
0.0063423149
0.0065099886
0.0058732562
0.0056956075
0.0056758851
0.0056841354
0.005691524
0.0056952446
0.0056973595
0.0056981079
0.0056983343
0.0056982365
0.0056980669
0.0056980509
0.0056981135
0.0056980527
0.0056980527
0.0056981135
0.0056980509
0.0056980669
0.0056982365
0.0056983343
0.0056981079
0.0056973595
0.0056952446
0.005691524
0.0056841354
0.0056758851
0.0056956075
0.0058732563
0.0065099895
0.0066875111
0.005999052
0.0058121884
0.0057914031
0.0058005892
0.0058087168
0.005812808
0.0058150884
0.0058158634
0.0058160522
0.0058158812
0.0058156282
0.0058155395
0.0058155502
0.0058154636
0.0058154636
0.0058155502
0.0058155395
0.0058156282
0.0058158812
0.0058160522
0.0058158634
0.0058150884
0.005812808
0.0058087168
0.0058005892
0.0057914031
0.0058121884
0.0059990521
0.006687512
0.0068757601
0.0061299153
0.0059341111
0.0059122716
0.0059224566
0.0059313686
0.0059358519
0.0059383026
0.0059391016
0.0059392495
0.0059390029
0.0059386644
0.0059385002
0.0059384545
0.0059383403
0.0059383403
0.0059384545
0.0059385002
0.0059386644
0.0059390029
0.0059392495
0.0059391016
0.0059383026
0.0059358519
0.0059313686
0.0059224566
0.0059122716
0.0059341111
0.0061299153
0.0068757611
0.0070757722
0.0062659637
0.0060615602
0.0060386612
0.0060498973
0.0060596358
0.0060645312
0.0060671556
0.0060679759
0.0060680796
0.0060677548
0.0060673296
0.0060670883
0.0060669831
0.0060668402
0.0060668402
0.0060669831
0.0060670883
0.0060673296
0.0060677548
0.0060680796
0.0060679759
0.0060671556
0.0060645312
0.0060596358
0.0060498973
0.0060386612
0.0060615602
0.0062659637
0.0070757732
0.0072887944
0.006407358
0.0061947565
0.0061707709
0.0061830933
0.0061936936
0.006199018
0.0062018193
0.0062026587
0.0062027145
0.0062023082
0.006201795
0.0062014762
0.0062013095
0.0062011374
0.0062011374
0.0062013095
0.0062014762
0.006201795
0.0062023082
0.0062027145
0.0062026587
0.0062018193
0.006199018
0.0061936936
0.0061830933
0.0061707709
0.0061947565
0.006407358
0.0072887956
0.0075163204
0.0065543225
0.0063339663
0.006308835
0.0063222546
0.0063337407
0.0063395069
0.0063424877
0.0063433442
0.0063433481
0.0063428569
0.0063422544
0.0063418577
0.006341629
0.0063414281
0.0063414281
0.006341629
0.0063418577
0.0063422544
0.0063428569
0.0063433481
0.0063433442
0.0063424877
0.0063395069
0.0063337407
0.0063222546
0.006308835
0.0063339663
0.0065543226
0.0075163217
0.0077601477
0.0067071661
0.0064795113
0.0064531306
0.0064676263
0.0064800057
0.006486221
0.0064893822
0.0064902539
0.0064902016
0.0064896222
0.0064889289
0.0064884543
0.0064881642
0.0064879356
0.0064879356
0.0064881642
0.0064884543
0.0064889289
0.0064896222
0.0064902016
0.0064902539
0.0064893822
0.006486221
0.0064800057
0.0064676263
0.0064531306
0.0064795113
0.0067071662
0.0077601491
0.0080224267
0.0068663104
0.0066317871
0.0066039896
0.0066194972
0.0066327573
0.0066394211
0.0066427607
0.0066436454
0.0066435334
0.0066428624
0.0066420766
0.0066415246
0.006641174
0.0066409184
0.0066409184
0.006641174
0.0066415246
0.0066420766
0.0066428624
0.0066435334
0.0066436454
0.0066427607
0.0066394211
0.0066327573
0.0066194972
0.0066039896
0.0066317871
0.0068663105
0.0080224282
0.0083057471
0.0070323244
0.0067912773
0.006761811
0.006778205
0.0067923049
0.0067994054
0.006802918
0.0068038165
0.0068036454
0.0068028801
0.0068019997
0.0068013704
0.0068009597
0.0068006775
0.0068006775
0.0068009597
0.0068013704
0.0068019997
0.0068028801
0.0068036454
0.0068038165
0.006802918
0.0067994054
0.0067923049
0.006778205
0.006761811
0.0067912773
0.0070323244
0.0083057487
0.0086132202
0.007205972
0.0069585749
0.0069270745
0.006944155
0.0069590239
0.0069665364
0.0069702123
0.0069711188
0.0069708873
0.0069700297
0.006969053
0.0069683463
0.0069678757
0.0069675674
0.0069675674
0.0069678757
0.0069683463
0.006969053
0.0069700298
0.0069708873
0.0069711188
0.0069702123
0.0069665364
0.0069590239
0.006944155
0.0069270745
0.0069585749
0.007205972
0.008613222
0.008948587
0.00738827
0.0071344302
0.0071003665
0.0071178449
0.0071333683
0.0071412485
0.0071450695
0.0071459752
0.0071456783
0.0071447334
0.0071436607
0.0071428775
0.0071423475
0.0071420135
0.0071420135
0.0071423475
0.0071428775
0.0071436607
0.0071447335
0.0071456783
0.0071459752
0.0071450695
0.0071412485
0.0071333683
0.0071178449
0.0071003665
0.0071344302
0.00738827
0.0089485889
0.0093163299
0.0075805342
0.0073197598
0.007282407
0.0072998756
0.0073158821
0.0073240591
0.0073279963
0.0073288888
0.0073285219
0.0073274881
0.0073263283
0.0073254704
0.0073248825
0.0073245232
0.0073245232
0.0073248825
0.0073254704
0.0073263283
0.0073274881
0.0073285219
0.0073288888
0.0073279963
0.0073240591
0.0073158821
0.0072998756
0.007282407
0.0073197598
0.0075805343
0.0093163319
0.0097217933
0.0077844573
0.0075156669
0.0074740628
0.0074909693
0.007507215
0.0075155837
0.0075195945
0.0075204574
0.0075200162
0.0075188937
0.0075176547
0.007516728
0.0075160842
0.0075157001
0.0075157001
0.0075160842
0.007516728
0.0075176547
0.0075188937
0.0075200162
0.0075204574
0.0075195946
0.0075155837
0.007507215
0.0074909693
0.0074740628
0.0075156668
0.0077844573
0.0097217955
0.010171334
0.0080021402
0.0077234852
0.0076763828
0.007692
0.0077081494
0.0077165601
0.0077205839
0.0077213949
0.0077208748
0.0077196654
0.0077183511
0.0077173672
0.0077166735
0.0077162656
0.0077162656
0.0077166735
0.0077173672
0.0077183511
0.0077196654
0.0077208748
0.0077213949
0.0077205839
0.0077165601
0.0077081494
0.007692
0.0076763828
0.0077234852
0.0080021403
0.010171336
0.01067245
0.0082361761
0.0079448303
0.0078906281
0.0079040181
0.0079196239
0.0079278715
0.0079318228
0.0079325509
0.0079319461
0.0079306533
0.0079292695
0.0079282348
0.0079274968
0.0079270677
0.0079270677
0.0079274968
0.0079282348
0.0079292695
0.0079306533
0.0079319461
0.0079325509
0.0079318228
0.0079278715
0.0079196239
0.0079040181
0.0078906281
0.0079448303
0.0082361762
0.010672452
0.011233938
0.0084897272
0.0081816488
0.0081183105
0.0081282793
0.0081427594
0.0081505704
0.0081543316
0.0081549328
0.0081542351
0.0081528643
0.0081514196
0.0081503433
0.0081495689
0.008149122
0.008149122
0.0081495689
0.0081503433
0.0081514196
0.0081528643
0.0081542351
0.0081549328
0.0081543316
0.0081505704
0.0081427594
0.0081282793
0.0081183105
0.0081816488
0.0084897272
0.011233941
0.011866062
0.0087665947
0.0084362888
0.0083612411
0.0083662856
0.008378892
0.0083859095
0.0083893245
0.0083897382
0.0083889353
0.0083874945
0.0083860021
0.0083848964
0.0083840952
0.0083836351
0.0083836351
0.0083840952
0.0083848964
0.0083860021
0.0083874945
0.0083889353
0.0083897382
0.0083893245
0.0083859095
0.008378892
0.0083662856
0.0083612411
0.0084362887
0.0087665948
0.011866065
0.012580738
0.0090713744
0.0087115465
0.0086215717
0.0086198238
0.0086296065
0.008635371
0.0086382372
0.0086383829
0.0086374564
0.008635955
0.0086344325
0.008633313
0.0086324971
0.0086320299
0.0086320299
0.0086324971
0.008633313
0.0086344325
0.008635955
0.0086374564
0.0086383829
0.0086382372
0.008635371
0.0086296065
0.0086198237
0.0086215717
0.0087115465
0.0090713745
0.012580741
0.0133917
0.0094093165
0.0090106594
0.0089018392
0.0088910051
0.0088967736
0.0089007019
0.0089027579
0.0089025294
0.0089014521
0.008899899
0.008898368
0.0088972558
0.0088964413
0.0088959755
0.0088959755
0.0088964413
0.0088972558
0.008898368
0.008899899
0.0089014521
0.0089025294
0.0089027579
0.0089007019
0.0088967736
0.0088910051
0.0089018392
0.0090106594
0.0094093167
0.013391704
0.014314666
0.0097864836
0.0093374002
0.0092050153
0.0091823149
0.009182598
0.0091839584
0.00918487
0.0091841285
0.0091828614
0.009181264
0.00917975
0.0091786716
0.0091778795
0.0091774263
0.0091774263
0.0091778795
0.0091786716
0.00917975
0.009181264
0.0091828614
0.0091841285
0.00918487
0.0091839584
0.009182598
0.0091823149
0.0092050153
0.0093374002
0.0097864837
0.01431467
0.015367508
0.010209889
0.0096961215
0.0095345481
0.0094966577
0.0094896604
0.0094875453
0.0094868898
0.0094854563
0.0094839452
0.0094823079
0.0094808389
0.0094798264
0.0094790831
0.009478656
0.009478656
0.0094790831
0.0094798264
0.0094808389
0.0094823079
0.0094839452
0.0094854563
0.0094868898
0.0094875453
0.0094896604
0.0094966577
0.009534548
0.0096961214
0.010209889
0.015367513
0.016570432
0.010687496
0.010091788
0.0098944042
0.0098374039
0.0098209603
0.0098142542
0.0098115045
0.0098091506
0.0098073215
0.0098056441
0.0098042503
0.0098033411
0.0098026777
0.0098022933
0.0098022933
0.0098026777
0.0098033411
0.0098042503
0.0098056441
0.0098073215
0.0098091506
0.0098115045
0.0098142542
0.0098209603
0.0098374039
0.0098944042
0.010091787
0.010687496
0.016570438
0.017946189
0.011228262
0.010530009
0.010289121
0.010208441
0.010179967
0.010167315
0.010161819
0.010158257
0.010156012
0.010154287
0.010152999
0.010152235
0.010151688
0.010151365
0.010151365
0.010151688
0.010152235
0.010152999
0.010154287
0.010156012
0.010158257
0.010161819
0.010167315
0.010179967
0.010208441
0.010289121
0.010530009
0.011228262
0.017946195
0.019520263
0.011842185
0.011017087
0.010723845
0.010614215
0.010570665
0.010550439
0.010541396
0.010536266
0.010533475
0.010531685
0.010530534
0.01052996
0.01052957
0.01052933
0.01052933
0.01052957
0.01052996
0.010530534
0.010531685
0.010533475
0.010536266
0.010541396
0.010550439
0.010570665
0.010614214
0.010723845
0.011017087
0.011842186
0.01952027
0.021321054
0.012540346
0.011559865
0.011204359
0.011059766
0.010997592
0.010967858
0.010954294
0.010947148
0.010943645
0.010941758
0.010940772
0.010940438
0.010940248
0.010940114
0.010940114
0.010940248
0.010940438
0.010940772
0.010941758
0.010943645
0.010947148
0.010954294
0.010967858
0.010997592
0.011059766
0.011204359
0.011559865
0.012540346
0.021321061
0.023380114
0.013334942
0.01216595
0.011737111
0.011550776
0.011465888
0.011424369
0.011405115
0.011395403
0.011390969
0.011388935
0.011388139
0.011388096
0.011388155
0.011388153
0.011388153
0.011388155
0.011388096
0.011388139
0.011388935
0.011390969
0.011395403
0.011405115
0.011424369
0.011465888
0.011550776
0.011737111
0.01216595
0.013334942
0.023380122
0.025732274
0.014239332
0.012843715
0.012329219
0.012093596
0.011981325
0.011925369
0.011899033
0.011886087
0.011880448
0.011878187
0.011877599
0.0118779
0.011878256
0.011878414
0.011878414
0.011878256
0.0118779
0.011877599
0.011878187
0.011880448
0.011886087
0.011899033
0.011925369
0.011981325
0.012093596
0.012329219
0.012843714
0.014239332
0.025732284
0.028415905
0.015268063
0.013602232
0.012988469
0.012695254
0.012550334
0.012476879
0.012441828
0.012424842
0.012417651
0.012415055
0.012414681
0.012415376
0.012416081
0.012416427
0.012416427
0.012416081
0.012415376
0.012414681
0.012415054
0.012417651
0.012424842
0.012441828
0.012476879
0.012550334
0.012695254
0.012988469
0.013602232
0.015268064
0.028415916
0.031473396
0.016436942
0.014451273
0.013723336
0.013363476
0.013180032
0.013085585
0.013039913
0.013017927
0.013008757
0.013005676
0.013005508
0.013006642
0.013007746
0.013008311
0.013008311
0.013007746
0.013006642
0.013005508
0.013005676
0.013008757
0.013017927
0.013039913
0.013085585
0.013180032
0.013363476
0.013723336
0.014451273
0.016436942
0.031473407
0.03495139
0.017763074
0.015401283
0.014542968
0.01410668
0.013878232
0.013758846
0.013700356
0.013672235
0.013660561
0.0136568
0.013656807
0.01365842
0.013659971
0.013660784
0.013660784
0.013659971
0.01365842
0.013656807
0.0136568
0.013660561
0.013672235
0.013700356
0.013758846
0.013878232
0.01410668
0.014542968
0.015401283
0.017763075
0.034951403
0.038901097
0.019264907
0.016463358
0.015457109
0.014933961
0.014653438
0.014504698
0.014430878
0.014395295
0.014380484
0.014375792
0.014375918
0.014378033
0.014380079
0.01438117
0.01438117
0.014380079
0.014378033
0.014375918
0.014375792
0.014380484
0.014395295
0.014430878
0.014504698
0.014653438
0.014933961
0.015457109
0.016463358
0.019264908
0.038901112
0.043378758
0.020962285
0.017649235
0.016476112
0.015855081
0.015514849
0.015331869
0.015239872
0.01519529
0.015176587
0.015170644
0.015170797
0.015173427
0.015176007
0.015177403
0.015177403
0.015176007
0.015173427
0.015170797
0.015170644
0.015176587
0.01519529
0.015239872
0.015331869
0.015514849
0.015855081
0.016476112
0.017649234
0.020962285
0.043378775
0.048445949
0.022876575
0.018971256
0.017610858
0.016880424
0.016472335
0.016249756
0.016136388
0.016081043
0.016057555
0.016049964
0.016050012
0.016053147
0.016056294
0.016058021
0.016058021
0.016056294
0.016053147
0.016050012
0.016049964
0.016057555
0.016081043
0.016136388
0.016249756
0.016472335
0.016880424
0.017610858
0.018971256
0.022876576
0.048445969
0.054170137
0.025034735
0.020442364
0.018872689
0.018020934
0.017536386
0.017268394
0.0171301
0.017061986
0.017032669
0.017022943
0.017022704
0.017026311
0.017030046
0.017032124
0.017032124
0.017030046
0.017026311
0.017022704
0.017022943
0.017032669
0.017061986
0.0171301
0.017268394
0.017536386
0.018020934
0.018872689
0.020442364
0.025034736
0.054170159
0.060624792
0.027464403
0.022076082
0.020273401
0.019288084
0.018718084
0.018398431
0.018231298
0.018148154
0.0181118
0.018099354
0.018098589
0.018102604
0.018106935
0.01810938
0.01810938
0.018106935
0.018102604
0.018098588
0.018099354
0.0181118
0.018148154
0.018231298
0.018398431
0.018718084
0.019288084
0.020273401
0.022076082
0.027464404
0.060624817
0.06788921
0.030191513
0.023886412
0.021825176
0.020693809
0.020029063
0.019651112
0.019450875
0.019350174
0.0193054
0.019289539
0.019287946
0.019292271
0.019297188
0.019300009
0.019300009
0.019297188
0.019292271
0.019287946
0.019289539
0.0193054
0.019350174
0.019450875
0.019651112
0.020029063
0.020693809
0.021825176
0.023886412
0.030191514
0.067889239
0.076046401
0.033244036
0.025887781
0.023540507
0.022250464
0.021481466
0.021038238
0.020800286
0.020679234
0.020624469
0.020604376
0.02060158
0.020606075
0.020611548
0.020614746
0.020614746
0.020611548
0.020606075
0.02060158
0.020604376
0.020624468
0.020679234
0.020800286
0.021038238
0.021481466
0.022250464
0.023540506
0.025887781
0.033244038
0.076046434
0.085186635
0.036652412
0.028095013
0.025432147
0.023970776
0.023087906
0.022572125
0.022291517
0.022147044
0.022080517
0.022055246
0.022050789
0.022055266
0.02206124
0.022064803
0.022064803
0.022061239
0.022055266
0.022050788
0.022055246
0.022080517
0.022147044
0.022291517
0.022572125
0.023087906
0.023970776
0.025432146
0.028095012
0.036652415
0.085186672
0.095405402
0.040449933
0.030523501
0.027513025
0.025867741
0.024861361
0.024265507
0.023936996
0.023765762
0.0236855
0.023653961
0.023647293
0.023651511
0.023657899
0.023661805
0.023661805
0.023657899
0.023651511
0.023647293
0.023653961
0.0236855
0.023765762
0.023936995
0.024265507
0.024861361
0.025867741
0.027513025
0.030523501
0.040449936
0.095405445
0.10680151
0.044673176
0.033189191
0.02979615
0.027954476
0.026815059
0.026131435
0.025749493
0.025547895
0.025451715
0.025412671
0.025403144
0.025406799
0.025413483
0.025417693
0.025417693
0.025413483
0.025406799
0.025403144
0.025412671
0.025451715
0.025547895
0.025749493
0.026131435
0.026815059
0.027954476
0.02979615
0.03318919
0.044673179
0.10680156
0.1194749
0.049362588
0.036108628
0.032294571
0.030244156
0.028962409
0.028183395
0.027742307
0.027506486
0.02739199
0.027344048
0.027330912
0.027333636
0.02734046
0.02734492
0.02734492
0.02734046
0.027333636
0.027330912
0.027344048
0.02739199
0.027506486
0.027742307
0.028183395
0.028962409
0.030244155
0.03229457
0.036108627
0.049362593
0.11947496
0.13352301
0.054563089
0.039298947
0.035021305
0.032749914
0.031317047
0.030435015
0.029928847
0.029654713
0.029519301
0.029460908
0.029443295
0.029444646
0.02945141
0.029456044
0.029456044
0.02945141
0.029444646
0.029443295
0.029460908
0.029519301
0.029654713
0.029928847
0.030435015