/*--------------------------------*- C++ -*----------------------------------*\
  =========                 |
  \\      /  F ield         | OpenFOAM: The Open Source CFD Toolbox
   \\    /   O peration     | Website:  https://openfoam.org
    \\  /    A nd           | Version:  8
     \\/     M anipulation  |
\*---------------------------------------------------------------------------*/
/*   Windows 32 and 64 bit porting by blueCAPE: http://www.bluecape.com.pt   *\
|  Based on Windows porting (2.0.x v4) by Symscape: http://www.symscape.com   |
\*---------------------------------------------------------------------------*/
FoamFile
{
    version     2.0;
    format      ascii;
    class       volScalarField;
    location    "90";
    object      nut;
}
// * * * * * * * * * * * * * * * * * * * * * * * * * * * * * * * * * * * * * //

dimensions      [0 2 -1 0 0 0 0];

internalField   nonuniform List<scalar> 
283500
(
0.034887021
0.034987208
0.035014527
0.035018915
0.035022077
0.035023589
0.035024766
0.035025494
0.035026061
0.035026385
0.035026638
0.035026751
0.035026822
0.035026841
0.035026866
0.035026866
0.035026841
0.035026822
0.035026751
0.035026638
0.035026385
0.035026061
0.035025494
0.035024766
0.035023589
0.035022077
0.035018915
0.035014527
0.034987208
0.034887021
0.034370387
0.034677718
0.034755588
0.034768679
0.034777486
0.034781672
0.034784902
0.034786875
0.034788434
0.034789308
0.034790007
0.034790313
0.034790508
0.034790557
0.034790628
0.034790628
0.034790557
0.034790508
0.034790313
0.034790007
0.034789308
0.034788434
0.034786875
0.034784902
0.034781672
0.034777486
0.034768679
0.034755588
0.034677718
0.034370387
0.033604622
0.0342247
0.034374738
0.034400507
0.034416748
0.034424446
0.034430307
0.034433844
0.034436659
0.034438218
0.034439484
0.034440026
0.034440377
0.034440458
0.034440587
0.034440587
0.034440458
0.034440377
0.034440026
0.034439484
0.034438218
0.034436659
0.034433844
0.034430307
0.034424446
0.034416748
0.034400507
0.034374738
0.0342247
0.033604621
0.032641443
0.033645254
0.033887093
0.033929671
0.03395484
0.033966671
0.033975545
0.033980846
0.033985076
0.033987392
0.033989291
0.033990087
0.03399061
0.033990719
0.033990912
0.033990912
0.033990719
0.03399061
0.033990087
0.033989291
0.033987392
0.033985076
0.033980846
0.033975545
0.033966671
0.03395484
0.033929671
0.033887093
0.033645254
0.032641443
0.031544122
0.032959853
0.033309263
0.033371802
0.033406914
0.033423396
0.033435544
0.03344271
0.033448427
0.033451527
0.03345409
0.033455143
0.033455839
0.033455971
0.033456231
0.033456231
0.033455971
0.033455839
0.033455143
0.03345409
0.033451527
0.033448427
0.03344271
0.033435544
0.033423396
0.033406914
0.033371802
0.033309263
0.032959853
0.031544121
0.030372
0.032191827
0.032659531
0.032744311
0.032789854
0.032811177
0.032826623
0.032835604
0.032842752
0.032846563
0.032849742
0.032851008
0.032851846
0.032851981
0.032852301
0.032852301
0.032851981
0.032851846
0.032851008
0.032849742
0.032846563
0.032842752
0.032835604
0.032826623
0.032811177
0.032789854
0.032744311
0.032659531
0.032191827
0.030372
0.029173908
0.031365087
0.031956516
0.032065219
0.032121305
0.032147415
0.032165982
0.032176592
0.032184999
0.032189385
0.032193074
0.032194474
0.032195398
0.0321955
0.032195864
0.032195864
0.0321955
0.032195398
0.032194474
0.032193074
0.032189385
0.032184999
0.032176592
0.032165982
0.032147415
0.032121305
0.032065219
0.031956516
0.031365087
0.029173907
0.027986427
0.03050202
0.031217821
0.031351594
0.031418133
0.03144885
0.031470258
0.031482241
0.031491673
0.031496459
0.031500522
0.031501962
0.031502901
0.031502932
0.031503319
0.031503319
0.031502932
0.031502901
0.031501962
0.031500522
0.031496459
0.031491673
0.031482241
0.031470258
0.03144885
0.031418133
0.031351594
0.031217821
0.03050202
0.027986426
0.026834731
0.029622121
0.030459037
0.030618601
0.030695388
0.03073046
0.030754384
0.030767472
0.030777682
0.030782689
0.030786984
0.030788368
0.030789254
0.030789176
0.030789562
0.030789562
0.030789176
0.030789254
0.030788368
0.030786984
0.030782689
0.030777682
0.030767472
0.030754384
0.03073046
0.030695388
0.030618601
0.030459037
0.029622121
0.02683473
0.025734606
0.028741402
0.029693313
0.02987908
0.029965861
0.030005005
0.030031105
0.030045035
0.030055784
0.030060842
0.030065224
0.030066465
0.030067231
0.030067008
0.030067374
0.030067374
0.030067008
0.030067231
0.030066465
0.030065224
0.030060842
0.030055784
0.030045035
0.030031105
0.030005005
0.029965861
0.02987908
0.029693313
0.028741402
0.025734605
0.024694685
0.027872358
0.028931295
0.029143461
0.029239985
0.029282923
0.029310863
0.029325387
0.029336446
0.029341395
0.029345728
0.029346741
0.029347326
0.029346927
0.029347251
0.029347251
0.029346927
0.029347326
0.029346741
0.029345728
0.029341395
0.029336446
0.029325387
0.029310863
0.029282923
0.029239985
0.029143461
0.028931295
0.027872358
0.024694684
0.023718424
0.02702423
0.028181244
0.028419873
0.028525933
0.028572425
0.028601895
0.028616781
0.028627934
0.028632624
0.028636774
0.028637479
0.028637823
0.02863722
0.028637481
0.028637481
0.02863722
0.028637823
0.028637479
0.028636774
0.028632624
0.028627934
0.028616781
0.028601895
0.028572425
0.028525933
0.028419873
0.028181244
0.02702423
0.023718424
0.022805703
0.026203419
0.027449272
0.027714373
0.027829839
0.027879698
0.027910426
0.027925465
0.027936508
0.027940797
0.027944635
0.027944952
0.027944997
0.027944159
0.027944337
0.027944337
0.027944159
0.027944997
0.027944952
0.027944635
0.027940797
0.027936508
0.027925465
0.027910426
0.027879698
0.027829839
0.027714373
0.027449272
0.026203419
0.022805702
0.021954014
0.025413971
0.02673966
0.027031237
0.027156065
0.02720918
0.027240941
0.027255943
0.027266686
0.027270437
0.027273837
0.027273686
0.027273374
0.02727227
0.027272345
0.027272345
0.02727227
0.027273374
0.027273686
0.027273837
0.027270437
0.027266686
0.027255943
0.027240941
0.02720918
0.027156065
0.027031237
0.02673966
0.025413971
0.021954014
0.021159287
0.024658045
0.026055168
0.026373259
0.026507497
0.026563833
0.026596456
0.026611263
0.026621527
0.026624608
0.026627443
0.026626743
0.026626015
0.026624611
0.026624561
0.026624561
0.026624611
0.026626015
0.026626743
0.026627443
0.026624608
0.026621527
0.026611263
0.026596456
0.026563833
0.026507497
0.026373259
0.026055168
0.024658045
0.021159286
0.020416434
0.023936322
0.025397331
0.025742033
0.025885813
0.025945417
0.025978791
0.025993271
0.026002894
0.026005175
0.02600732
0.026005985
0.026004779
0.026003042
0.026002843
0.026002843
0.026003042
0.026004779
0.026005985
0.02600732
0.026005175
0.026002894
0.025993271
0.025978791
0.025945417
0.025885813
0.025742033
0.025397331
0.023936322
0.020416433
0.019719752
0.023248348
0.024766715
0.025138193
0.02529174
0.025354736
0.025388806
0.025402861
0.025411696
0.025413053
0.025414381
0.025412323
0.025410573
0.025408464
0.025408093
0.025408093
0.025408464
0.025410573
0.025412323
0.025414381
0.025413053
0.025411696
0.025402861
0.025388806
0.025354736
0.02529174
0.025138193
0.024766715
0.023248348
0.019719752
0.019063463
0.022592827
0.024163132
0.024561633
0.024725255
0.024791846
0.024826609
0.024840177
0.024848094
0.024848406
0.024848792
0.024845921
0.024843557
0.024841035
0.024840466
0.024840466
0.024841035
0.024843557
0.024845921
0.024848792
0.024848406
0.024848094
0.024840177
0.024826609
0.024791846
0.024725255
0.024561633
0.024163132
0.022592827
0.019063462
0.018442201
0.021967883
0.023585818
0.024011683
0.024185765
0.024256222
0.024291725
0.024304778
0.024311671
0.024310826
0.024310147
0.024306366
0.024303315
0.024300335
0.024299543
0.024299543
0.024300335
0.024303315
0.024306366
0.024310147
0.024310826
0.024311671
0.024304778
0.024291725
0.024256222
0.024185765
0.024011683
0.023585818
0.021967883
0.018442201
0.017851353
0.021371265
0.023033578
0.023487254
0.023672241
0.023746892
0.023783234
0.023795779
0.023801564
0.023799462
0.023797596
0.023792809
0.023788997
0.023785511
0.023784469
0.023784469
0.023785511
0.023788997
0.023792809
0.023797596
0.023799462
0.023801564
0.023795779
0.023783234
0.023746892
0.023672241
0.023487254
0.023033578
0.021371265
0.017851352
0.017287203
0.02080051
0.022504893
0.022986945
0.023183325
0.023262547
0.023299871
0.023311949
0.023316569
0.023313125
0.023309962
0.023304073
0.023299421
0.02329538
0.023294061
0.023294061
0.02329538
0.023299421
0.023304073
0.023309963
0.023313125
0.023316569
0.023311949
0.023299871
0.023262547
0.023183325
0.022986945
0.022504893
0.020800509
0.017287202
0.01674694
0.020253058
0.021997991
0.022509109
0.022717413
0.022801616
0.022840108
0.022851793
0.022855218
0.022850367
0.022845807
0.022838724
0.022833154
0.022828509
0.022826884
0.022826884
0.022828509
0.022833154
0.022838724
0.022845807
0.022850367
0.022855218
0.022851793
0.022840108
0.022801616
0.022717413
0.022509109
0.021997991
0.020253057
0.016746939
0.016228549
0.019726339
0.021510896
0.022051906
0.022272706
0.022362324
0.0224022
0.022413601
0.022415827
0.022409523
0.02240348
0.022395121
0.02238856
0.022383263
0.022381306
0.022381306
0.022383263
0.02238856
0.022395121
0.02240348
0.022409523
0.022415827
0.022413601
0.0224022
0.022362324
0.022272706
0.022051906
0.021510896
0.019726338
0.016228549
0.015730647
0.019217833
0.021041468
0.021613324
0.021847237
0.021942719
0.021984227
0.021995488
0.021996537
0.021988752
0.021981159
0.021971452
0.021963834
0.021957838
0.021955523
0.021955523
0.021957838
0.021963834
0.021971452
0.021981159
0.021988752
0.021996537
0.021995488
0.021984227
0.021942719
0.021847237
0.021613324
0.021041468
0.019217832
0.015730647
0.015252284
0.018725122
0.020587433
0.021191211
0.021438898
0.021540706
0.021584114
0.021595405
0.021595328
0.021586061
0.021576869
0.021565757
0.021557022
0.021550284
0.021547587
0.021547587
0.021550284
0.021557022
0.021565757
0.021576869
0.021586061
0.021595328
0.021595405
0.021584114
0.021540706
0.021438898
0.021191211
0.020587433
0.018725122
0.015252284
0.014792764
0.018245922
0.020146406
0.02078328
0.02104546
0.021154063
0.021199651
0.021211169
0.021210046
0.02119932
0.021188504
0.021175946
0.021166047
0.021158526
0.021155422
0.021155422
0.021158526
0.021166047
0.021175946
0.021188504
0.02119932
0.021210046
0.021211169
0.021199651
0.021154063
0.02104546
0.02078328
0.020146406
0.018245921
0.014792764
0.014351488
0.017778137
0.01971595
0.020387131
0.020664581
0.020780459
0.02082851
0.020840464
0.020838404
0.020826276
0.020813834
0.020799813
0.020788717
0.020780376
0.020776842
0.020776842
0.020780376
0.020788717
0.020799813
0.020813834
0.020826276
0.020838404
0.020840464
0.02082851
0.020780459
0.020664581
0.020387131
0.01971595
0.017778136
0.014351488
0.013927847
0.017319914
0.019293646
0.020000299
0.020293834
0.020417471
0.020468263
0.02048087
0.020478002
0.020464555
0.020450515
0.020435038
0.020422735
0.020413545
0.02040956
0.02040956
0.020413545
0.020422735
0.020435038
0.020450515
0.020464555
0.020478002
0.02048087
0.020468264
0.020417471
0.020293834
0.020000299
0.019293646
0.017319914
0.013927846
0.01352116
0.016869676
0.018877182
0.019620317
0.019930769
0.020062641
0.020116437
0.020129909
0.020126374
0.020111712
0.02009613
0.02007923
0.020065729
0.020055673
0.020051218
0.020051218
0.020055673
0.020065729
0.02007923
0.02009613
0.020111712
0.020126374
0.020129909
0.020116437
0.020062641
0.019930769
0.019620317
0.018877182
0.016869676
0.01352116
0.01313064
0.016426131
0.018464434
0.019244804
0.019572984
0.019713544
0.019770583
0.019785119
0.019781059
0.019765304
0.019748262
0.019729995
0.019715325
0.019704401
0.019699463
0.019699463
0.019704401
0.019715325
0.019729995
0.019748262
0.019765304
0.01978106
0.019785119
0.019770583
0.019713544
0.019572984
0.019244804
0.018464434
0.016426131
0.01313064
0.012755359
0.015988268
0.018053543
0.018871538
0.019218194
0.019367859
0.019428352
0.019444131
0.019439689
0.019422973
0.019404573
0.01938502
0.019369231
0.019357453
0.019352028
0.019352028
0.019357453
0.019369231
0.01938502
0.019404573
0.019422973
0.019439689
0.019444131
0.019428352
0.019367859
0.019218194
0.018871538
0.018053543
0.015988268
0.012755358
0.01239426
0.015555337
0.017642975
0.018498537
0.018864309
0.01902344
0.019087564
0.019104743
0.019100053
0.019082516
0.019062882
0.019042144
0.019025306
0.01901271
0.019006806
0.019006806
0.01901271
0.019025306
0.019042144
0.019062882
0.019082517
0.019100053
0.019104743
0.019087564
0.01902344
0.018864309
0.018498537
0.017642975
0.015555337
0.01239426
0.01204621
0.015126832
0.017231572
0.018124134
0.018509514
0.018678402
0.018746297
0.018765004
0.018760188
0.018741975
0.018721244
0.018699443
0.018681647
0.018668284
0.018661925
0.018661925
0.018668284
0.018681647
0.018699443
0.018721244
0.018741975
0.018760188
0.018765004
0.018746297
0.018678402
0.018509514
0.018124134
0.017231572
0.015126832
0.01204621
0.01171003
0.014702452
0.016818579
0.017747033
0.018152332
0.01833119
0.01840296
0.018423288
0.018418455
0.018399707
0.01837803
0.018355307
0.01833666
0.018322601
0.018315824
0.018315824
0.018322601
0.01833666
0.018355307
0.01837803
0.018399707
0.018418455
0.018423288
0.01840296
0.01833119
0.018152332
0.017747033
0.016818579
0.014702451
0.01171003
0.011384541
0.014282057
0.016403637
0.017366349
0.01779168
0.017980636
0.018056348
0.018078363
0.018073605
0.018054459
0.018031991
0.0180085
0.017989128
0.017974462
0.017967319
0.017967319
0.017974462
0.017989128
0.0180085
0.018031991
0.018054459
0.018073605
0.018078363
0.018056348
0.017980636
0.01779168
0.017366349
0.016403637
0.014282057
0.011384541
0.011068615
0.013865633
0.015986776
0.016981637
0.017426896
0.017625986
0.017705678
0.017729418
0.017724814
0.0177054
0.017682301
0.017658207
0.017638246
0.01762308
0.017615634
0.017615634
0.01762308
0.017638246
0.017658207
0.017682301
0.0177054
0.017724814
0.017729418
0.017705678
0.017625987
0.017426896
0.016981637
0.015986776
0.013865633
0.011068615
0.010761215
0.013453259
0.01556836
0.016592864
0.017057733
0.017266906
0.01735059
0.017376072
0.017371688
0.017352127
0.017328556
0.017304027
0.017283624
0.017268074
0.017260393
0.017260393
0.017268074
0.017283624
0.017304027
0.017328556
0.017352127
0.017371688
0.017376072
0.017350591
0.017266906
0.017057733
0.016592864
0.01556836
0.013453258
0.010761215
0.010461438
0.013045087
0.015149039
0.016200381
0.016684341
0.01690346
0.016991131
0.017018356
0.017014251
0.016994655
0.016970762
0.016945963
0.016925265
0.016909453
0.016901611
0.016901611
0.016909453
0.016925266
0.016945963
0.016970762
0.016994655
0.017014251
0.017018356
0.016991131
0.01690346
0.016684341
0.016200381
0.015149039
0.013045087
0.010461438
0.010168585
0.012641335
0.01472969
0.015804875
0.016307226
0.016536083
0.016627721
0.016656679
0.01665291
0.016633381
0.016609305
0.016584387
0.016563537
0.016547581
0.016539651
0.016539651
0.016547581
0.016563537
0.016584387
0.016609305
0.016633381
0.01665291
0.016656679
0.016627721
0.016536083
0.016307226
0.015804875
0.014729689
0.012641335
0.010168585
0.0098822106
0.012242264
0.014311339
0.0154073
0.015927192
0.016165513
0.016261086
0.016291767
0.016288392
0.016269023
0.016244886
0.016219984
0.016199109
0.016183123
0.016175175
0.016175175
0.016183123
0.016199109
0.016219984
0.016244886
0.016269023
0.016288392
0.016291767
0.016261086
0.016165513
0.015927192
0.0154073
0.014311339
0.012242264
0.0098822108
0.0096021753
0.011848194
0.013895111
0.015008806
0.015545269
0.01579273
0.0158922
0.015924594
0.015921675
0.015902552
0.015878464
0.015853691
0.015832901
0.015816986
0.015809081
0.015809081
0.015816986
0.015832901
0.015853691
0.015878464
0.015902552
0.015921675
0.015924594
0.0158922
0.01579273
0.015545269
0.015008806
0.013895111
0.011848193
0.0096021755
0.0093286949
0.011459524
0.013482181
0.014610676
0.015162656
0.015418894
0.015522221
0.015556322
0.015553925
0.015535126
0.015511183
0.015486635
0.015466017
0.015450258
0.015442451
0.015442451
0.015450258
0.015466017
0.015486635
0.015511183
0.015535126
0.015553925
0.015556322
0.015522221
0.015418894
0.015162656
0.014610676
0.013482181
0.011459524
0.0093286952
0.0090623592
0.011076759
0.013073735
0.014214257
0.014780649
0.015045274
0.015152417
0.015188225
0.015186421
0.015168017
0.015144304
0.015120057
0.015099681
0.015084143
0.015076474
0.015076474
0.015084143
0.015099681
0.015120057
0.015144304
0.015168017
0.015186421
0.015188225
0.015152417
0.015045274
0.014780649
0.014214257
0.013073735
0.011076759
0.0090623595
0.0088041726
0.010700545
0.012670966
0.013820924
0.014400584
0.01467319
0.014784108
0.014821631
0.014820495
0.014802558
0.014779148
0.014755261
0.01473518
0.014719912
0.01471241
0.01471241
0.014719912
0.01473518
0.014755261
0.014779148
0.014802558
0.014820495
0.014821631
0.014784108
0.01467319
0.014400584
0.013820924
0.012670966
0.010700545
0.008804173
0.0085555724
0.010331719
0.012275076
0.013432058
0.014023821
0.014303994
0.014418645
0.014457899
0.014457503
0.014440096
0.014417055
0.014393575
0.014373826
0.014358863
0.014351546
0.014351546
0.014358863
0.014373826
0.014393575
0.014417055
0.014440096
0.014457503
0.014457899
0.014418645
0.014303994
0.014023821
0.013432058
0.012275076
0.010331718
0.0085555729
0.0083184286
0.0099713346
0.011887305
0.013049029
0.013651717
0.013939032
0.01405737
0.014098373
0.014098789
0.014081965
0.014059352
0.014036313
0.014016923
0.014002287
0.013995166
0.013995166
0.014002287
0.014016923
0.014036313
0.014059352
0.014081965
0.014098789
0.014098373
0.01405737
0.013939032
0.013651717
0.013049029
0.011887305
0.0099713345
0.0083184291
0.0080950342
0.0096206862
0.011508945
0.012673217
0.013285618
0.01357963
0.013701597
0.013744368
0.013745665
0.013729476
0.013707333
0.013684768
0.013665755
0.01365146
0.013644536
0.013644536
0.01365146
0.013665755
0.013684768
0.013707333
0.013729476
0.013745665
0.013744368
0.013701597
0.01357963
0.013285618
0.012673217
0.011508945
0.009620686
0.0080950348
0.0078880816
0.0092813453
0.011141366
0.012306017
0.012926868
0.013227102
0.013352619
0.013397175
0.01339942
0.013383911
0.013362276
0.013340207
0.013321585
0.013307635
0.013300908
0.013300908
0.013307635
0.013321585
0.013340208
0.013362276
0.013383911
0.01339942
0.013397176
0.013352619
0.013227102
0.012926868
0.012306017
0.011141366
0.0092813452
0.0078880822
0.0077006254
0.0089551504
0.010786046
0.011948865
0.012576822
0.012882752
0.013011712
0.013058062
0.013061315
0.01304653
0.013025436
0.013003875
0.012985656
0.012972053
0.012965517
0.012965517
0.012972053
0.012985656
0.013003875
0.013025436
0.01304653
0.013061315
0.013058062
0.013011713
0.012882752
0.012576822
0.011948865
0.010786046
0.0089551502
0.0077006261
0.0075360379
0.0086442279
0.01044461
0.011603268
0.01223687
0.012547904
0.012680159
0.012728294
0.012732608
0.012718587
0.012698064
0.01267702
0.012659205
0.012645947
0.012639596
0.012639596
0.012645947
0.012659205
0.01267702
0.012698064
0.012718587
0.012732608
0.012728294
0.012680159
0.012547904
0.01223687
0.011603268
0.01044461
0.0086442278
0.0075360387
0.0073979672
0.0083509949
0.010118861
0.011270844
0.011908474
0.012223928
0.012359276
0.012409166
0.012414579
0.012401358
0.012381434
0.012360915
0.012343508
0.012330592
0.012324417
0.012324417
0.012330592
0.012343508
0.012360915
0.012381434
0.012401358
0.012414579
0.012409166
0.012359276
0.012223928
0.011908474
0.011270844
0.010118861
0.0083509948
0.007397968
0.0072902821
0.0080781219
0.009810799
0.010953348
0.011593189
0.011912263
0.012050434
0.012102018
0.012108555
0.012096163
0.012076866
0.012056883
0.012039889
0.01202731
0.012021305
0.012021305
0.01202731
0.012039889
0.012056883
0.012076866
0.012096163
0.012108555
0.012102018
0.012050434
0.011912263
0.011593189
0.010953348
0.009810799
0.0080781218
0.007290283
0.0072170361
0.0078285399
0.0095226166
0.010652694
0.011292698
0.011614444
0.011755089
0.011808268
0.011815933
0.011804395
0.011785752
0.01176632
0.011749744
0.011737501
0.011731661
0.011731661
0.011737501
0.011749744
0.01176632
0.011785752
0.011804395
0.011815933
0.011808268
0.011755089
0.011614445
0.011292698
0.010652694
0.0095226166
0.0078285398
0.007217037
0.0071824293
0.0076053012
0.0092566671
0.010370974
0.011008837
0.01133214
0.011474809
0.01152944
0.011538213
0.011527546
0.011509583
0.011490719
0.011474574
0.011462668
0.011456989
0.011456989
0.011462668
0.011474574
0.011490719
0.011509583
0.011527546
0.011538213
0.01152944
0.011474809
0.01133214
0.011008837
0.010370974
0.0092566671
0.0076053011
0.0071824304
0.0071907847
0.0074115527
0.0090154559
0.010110453
0.010743606
0.011067161
0.011211294
0.011267176
0.011277013
0.01126722
0.011249963
0.011231688
0.011215991
0.011204428
0.01119891
0.01119891
0.011204428
0.011215991
0.011231688
0.011249963
0.01126722
0.011277013
0.011267176
0.011211294
0.011067162
0.010743607
0.010110453
0.0090154559
0.0074115526
0.0071907859
0.0072465552
0.0072505119
0.0088016116
0.0098735604
0.010499182
0.010821483
0.010966393
0.011023262
0.011034083
0.011025159
0.011008629
0.010990967
0.010975738
0.01096453
0.010959175
0.010959175
0.01096453
0.010975739
0.010990967
0.011008629
0.011025159
0.011034083
0.011023262
0.010966393
0.010821483
0.010499182
0.0098735604
0.0088016116
0.0072505119
0.0072465564
0.007354353
0.0071253968
0.0086178481
0.0096628798
0.01027792
0.010597251
0.010742118
0.010799636
0.010811324
0.010803246
0.010787461
0.010770438
0.010755704
0.010744864
0.010739679
0.010739679
0.010744864
0.010755704
0.010770438
0.010787461
0.010803246
0.010811324
0.010799636
0.010742118
0.010597251
0.01027792
0.0096628799
0.0086178481
0.0071253967
0.0073543543
0.0075190013
0.0070393901
0.0084669215
0.0094811185
0.01008234
0.01039678
0.010540638
0.010598386
0.010610785
0.010603512
0.010588483
0.010572125
0.010557914
0.010547461
0.010542453
0.010542453
0.010547461
0.010557914
0.010572125
0.010588483
0.010603512
0.010610785
0.010598386
0.010540638
0.01039678
0.01008234
0.0094811185
0.0084669215
0.0070393901
0.0075190028
0.0077455978
0.0069956382
0.0083516106
0.0093310858
0.0099151178
0.010222551
0.010364287
0.010421758
0.010434661
0.010428132
0.010413862
0.010398192
0.010384534
0.010374489
0.010369669
0.010369669
0.010374489
0.010384534
0.010398192
0.010413862
0.010428132
0.010434661
0.010421758
0.010364287
0.010222552
0.0099151178
0.0093310859
0.0083516106
0.0069956382
0.0077455993
0.0080395797
0.0069972737
0.0082746362
0.0092156678
0.0097790635
0.010077201
0.010215555
0.010272145
0.010285295
0.010279421
0.010265901
0.010250942
0.010237867
0.010228253
0.010223631
0.010223631
0.010228253
0.010237867
0.010250942
0.010265901
0.010279421
0.010285295
0.010272145
0.010215555
0.010077201
0.0097790635
0.0092156679
0.0082746362
0.0069972737
0.0080395814
0.008406797
0.0070474476
0.0082387292
0.0091377995
0.0096771032
0.009963505
0.010097074
0.010152082
0.010165162
0.010159825
0.010147032
0.010132799
0.010120337
0.010111175
0.010106765
0.010106765
0.010111175
0.010120337
0.010132799
0.010147032
0.010159825
0.010165162
0.010152082
0.010097074
0.009963505
0.0096771033
0.0091377995
0.0082387292
0.0070474475
0.0084067989
0.0088535571
0.0071493859
0.0082466333
0.0091004481
0.0096122622
0.0098843674
0.010011609
0.010064235
0.010076866
0.010071913
0.010059805
0.010046307
0.010034483
0.010025797
0.010021611
0.010021611
0.010025797
0.010034483
0.010046307
0.010059805
0.010071913
0.010076866
0.010064235
0.010011609
0.0098843674
0.0096122622
0.0091004481
0.0082466332
0.0071493859
0.0088535592
0.0093866824
0.0073064519
0.0083010977
0.0091066039
0.0095876489
0.0098428086
0.0099620503
0.010011392
0.010023131
0.010018371
0.010006885
0.0099941193
0.0099829558
0.0099747656
0.0099708155
0.0099708155
0.0099747656
0.0099829558
0.0099941194
0.010006885
0.010018371
0.010023132
0.010011392
0.0099620504
0.0098428086
0.009587649
0.0091066039
0.0083010977
0.0073064519
0.0093866846
0.01001359
0.0075222143
0.0084049028
0.0091592868
0.0096064434
0.0098419545
0.0099514062
0.0099964589
0.010006794
0.010001993
0.009991042
0.0099789941
0.009968505
0.0099608279
0.0099571257
0.0099571257
0.0099608279
0.009968505
0.0099789941
0.0099910421
0.010001993
0.010006794
0.0099964589
0.0099514063
0.0098419546
0.0096064435
0.0091592868
0.0084049028
0.0075222143
0.010013593
0.010742307
0.0078005091
0.0085608911
0.0092615554
0.0096718964
0.0098850332
0.0099827977
0.010022456
0.0100308
0.010025679
0.010015151
0.01000379
0.0099939815
0.009986831
0.0099833869
0.0099833869
0.009986831
0.0099939815
0.01000379
0.010015151
0.010025679
0.0100308
0.010022456
0.0099827977
0.0098850332
0.0096718964
0.0092615554
0.008560891
0.0078005092
0.01074231
0.011581476
0.0081454909
0.0087719987
0.0094165072
0.0097873313
0.009975374
0.010059459
0.010092517
0.01009821
0.010092439
0.010082189
0.010071469
0.010062336
0.010055721
0.010052544
0.010052544
0.010055721
0.010062336
0.010071469
0.010082189
0.010092439
0.01009821
0.010092517
0.010059459
0.009975374
0.0097873313
0.0094165072
0.0087719986
0.008145491
0.011581479
0.012540369
0.0085616751
0.009041291
0.009627308
0.0099561531
0.010116413
0.010184744
0.010209895
0.010212196
0.010205394
0.010195247
0.010185098
0.010176627
0.01017055
0.010167645
0.010167645
0.01017055
0.010176627
0.010185098
0.010195247
0.010205394
0.010212196
0.010209895
0.010184744
0.010116413
0.0099561531
0.009627308
0.0090412908
0.0085616752
0.012540373
0.013628859
0.009053986
0.0093719899
0.0098972016
0.010181857
0.010311701
0.010362131
0.01037797
0.010376059
0.010367786
0.010357528
0.010347861
0.010340023
0.010334482
0.010331852
0.010331852
0.010334482
0.010340023
0.010347861
0.010357528
0.010367786
0.010376059
0.01037797
0.010362131
0.010311701
0.010181857
0.0098972015
0.0093719898
0.0090539861
0.013628863
0.014857401
0.0096286505
0.0097675005
0.010229521
0.010468032
0.010564905
0.010595228
0.010600252
0.010593225
0.010582983
0.01057236
0.01056306
0.010555813
0.010550796
0.010548443
0.010548443
0.010550796
0.010555813
0.01056306
0.01057236
0.010582983
0.010593225
0.010600252
0.010595228
0.010564905
0.010468032
0.010229521
0.0097675004
0.0096286506
0.014857405
0.016236938
0.010292132
0.010231431
0.010627714
0.010818378
0.01087982
0.010887781
0.010880396
0.010867263
0.010854489
0.010843205
0.010834132
0.010827417
0.010822906
0.010820826
0.010820826
0.010822906
0.010827417
0.010834132
0.010843205
0.010854489
0.010867263
0.010880396
0.010887781
0.01087982
0.010818378
0.010627714
0.010231431
0.010292132
0.016236943
0.017778734
0.011050645
0.010767586
0.011095345
0.011236708
0.011260377
0.011243693
0.011222216
0.011201901
0.011185966
0.011173681
0.011164664
0.011158406
0.011154374
0.01115256
0.01115256
0.011154374
0.011158406
0.011164664
0.011173681
0.011185966
0.011201901
0.011222216
0.011243693
0.011260377
0.011236708
0.011095345
0.010767585
0.011050646
0.017778739
0.019493915
0.011910812
0.011379954
0.011636096
0.011726955
0.011710652
0.011667027
0.011629692
0.011601032
0.011581238
0.011567562
0.011558399
0.011552505
0.011548913
0.011547354
0.011547354
0.011548913
0.011552505
0.011558399
0.011567562
0.011581238
0.011601032
0.011629692
0.011667027
0.011710652
0.011726955
0.011636095
0.011379954
0.011910813
0.019493921
0.021393831
0.012879717
0.01207271
0.012253757
0.012293173
0.012234865
0.012162007
0.012106974
0.012068718
0.012044295
0.012028787
0.012019243
0.012013598
0.012010398
0.012009077
0.012009077
0.012010398
0.012013598
0.012019243
0.012028787
0.012044295
0.012068718
0.012106974
0.012162008
0.012234865
0.012293172
0.012253757
0.012072709
0.012879717
0.021393837
0.023489586
0.013964925
0.012850241
0.012952215
0.012939515
0.012837364
0.012733006
0.012658369
0.012609184
0.012579288
0.012561452
0.012551254
0.01254572
0.01254285
0.012541747
0.012541747
0.01254285
0.01254572
0.012551254
0.012561452
0.012579288
0.012609184
0.012658369
0.012733006
0.012837364
0.012939515
0.012952215
0.012850241
0.013964926
0.023489592
0.025791604
0.015174495
0.013717138
0.013735421
0.013670196
0.013522593
0.013384516
0.013288318
0.013226791
0.013190505
0.013169788
0.013158625
0.01315304
0.013150424
0.013149509
0.013149509
0.013150424
0.01315304
0.013158625
0.013169788
0.013190505
0.013226791
0.013288318
0.013384516
0.013522593
0.013670196
0.01373542
0.013717138
0.015174496
0.025791611
0.02830919
0.016517005
0.014678191
0.014607378
0.014489472
0.014295078
0.014121189
0.014001451
0.013926094
0.013882427
0.013858219
0.013845738
0.013839914
0.013837461
0.013836699
0.013836699
0.013837461
0.013839914
0.013845738
0.013858219
0.013882427
0.013926094
0.014001451
0.014121189
0.014295078
0.014489472
0.014607378
0.014678191
0.016517006
0.028309199
0.031049932
0.018001553
0.015738372
0.015572116
0.015401608
0.015159424
0.014947745
0.014802467
0.014711729
0.01465962
0.014631253
0.014617057
0.014610775
0.014608377
0.014607724
0.014607724
0.014608377
0.014610775
0.014617057
0.014631253
0.01465962
0.014711729
0.014802467
0.014947745
0.015159424
0.015401608
0.015572116
0.015738372
0.018001554
0.031049941
0.034019185
0.019637694
0.016902854
0.016633655
0.016410839
0.01612025
0.015868928
0.015696124
0.015588402
0.015526724
0.015493468
0.015477117
0.015470128
0.015467658
0.015467062
0.015467062
0.015467658
0.015470129
0.015477117
0.015493468
0.015526724
0.015588402
0.015696124
0.015868928
0.01612025
0.016410839
0.016633655
0.016902853
0.019637695
0.034019195
0.037219747
0.021435377
0.018176933
0.017795997
0.017521345
0.017182118
0.016889506
0.016687225
0.016560876
0.016488441
0.016449512
0.016430518
0.016422542
0.016419852
0.016419253
0.016419254
0.016419854
0.016422544
0.016430519
0.016449513
0.016488442
0.016560878
0.016687226
0.016889507
0.017182119
0.017521345
0.017795996
0.018176932
0.021435376
0.037219754
0.040650762
0.023404789
0.019566123
0.019063093
0.018737233
0.018349528
0.018014216
0.017780575
0.017633935
0.0175495
0.017504057
0.017481888
0.017472611
0.017469533
0.017468858
0.017468858
0.017469533
0.017472611
0.017481888
0.017504056
0.0175495
0.017633935
0.017780575
0.018014217
0.018349528
0.018737233
0.019063092
0.019566123
0.023404791
0.040650774
0.044307218
0.02555614
0.021076222
0.020438818
0.020062445
0.019626856
0.019247725
0.018980938
0.018812338
0.018714615
0.018661763
0.01863584
0.018624914
0.018621258
0.018620425
0.018620425
0.018621258
0.018624914
0.01863584
0.018661763
0.018714615
0.018812338
0.018980938
0.019247725