/*--------------------------------*- C++ -*----------------------------------*\
  =========                 |
  \\      /  F ield         | OpenFOAM: The Open Source CFD Toolbox
   \\    /   O peration     | Website:  https://openfoam.org
    \\  /    A nd           | Version:  8
     \\/     M anipulation  |
\*---------------------------------------------------------------------------*/
/*   Windows 32 and 64 bit porting by blueCAPE: http://www.bluecape.com.pt   *\
|  Based on Windows porting (2.0.x v4) by Symscape: http://www.symscape.com   |
\*---------------------------------------------------------------------------*/
FoamFile
{
    version     2.0;
    format      ascii;
    class       volScalarField;
    location    "90";
    object      p;
}
// * * * * * * * * * * * * * * * * * * * * * * * * * * * * * * * * * * * * * //

dimensions      [1 -1 -2 0 0 0 0];

internalField   nonuniform List<scalar> 
283500
(
8207.1053
8197.2801
8194.5323
8192.5209
8191.355
8190.6265
8190.1483
8189.8287
8189.6119
8189.4631
8189.3609
8189.2911
8189.2448
8189.2167
8189.2033
8189.2033
8189.2167
8189.2448
8189.2911
8189.3609
8189.4631
8189.6119
8189.8287
8190.1483
8190.6265
8191.355
8192.5209
8194.5323
8197.2801
8207.1053
8189.4365
8186.0516
8184.7352
8182.9609
8181.9383
8181.2255
8180.7435
8180.4172
8180.1929
8180.0374
8179.9292
8179.8548
8179.8054
8179.7752
8179.761
8179.761
8179.7752
8179.8054
8179.8548
8179.9292
8180.0374
8180.1929
8180.4172
8180.7435
8181.2255
8181.9383
8182.9609
8184.7352
8186.0516
8189.4365
8181.0029
8179.8981
8179.3236
8177.9362
8177.1031
8176.3902
8175.8881
8175.5335
8175.2824
8175.1055
8174.9814
8174.8952
8174.8376
8174.8023
8174.7856
8174.7856
8174.8023
8174.8376
8174.8952
8174.9814
8175.1055
8175.2824
8175.5335
8175.8881
8176.3902
8177.1031
8177.9362
8179.3236
8179.8981
8181.0029
8180.8021
8179.6864
8178.9688
8177.7325
8176.9721
8176.2308
8175.6974
8175.2919
8174.9988
8174.7868
8174.634
8174.5264
8174.4536
8174.409
8174.3877
8174.3877
8174.409
8174.4536
8174.5264
8174.634
8174.7868
8174.9988
8175.2919
8175.6974
8176.2308
8176.9721
8177.7325
8178.9688
8179.6864
8180.8021
8182.8587
8181.5512
8180.5923
8179.296
8178.4644
8177.6514
8177.0558
8176.5788
8176.2273
8175.9641
8175.7734
8175.6368
8175.5436
8175.4862
8175.4587
8175.4587
8175.4862
8175.5436
8175.6368
8175.7734
8175.9641
8176.2273
8176.5788
8177.0558
8177.6514
8178.4644
8179.296
8180.5923
8181.5512
8182.8587
8184.9013
8183.6108
8182.5653
8181.174
8180.2273
8179.3129
8178.6414
8178.0849
8177.6642
8177.3438
8177.1092
8176.9383
8176.8208
8176.7479
8176.7129
8176.7129
8176.7479
8176.8208
8176.9383
8177.1092
8177.3438
8177.6642
8178.0849
8178.6414
8179.3129
8180.2273
8181.174
8182.5653
8183.6108
8184.9013
8186.9298
8185.7147
8184.6784
8183.2282
8182.1676
8181.1407
8180.3697
8179.7292
8179.2397
8178.8566
8178.5725
8178.3642
8178.2205
8178.1304
8178.087
8178.087
8178.1304
8178.2205
8178.3642
8178.5725
8178.8566
8179.2397
8179.7292
8180.3697
8181.1407
8182.1676
8183.2282
8184.6784
8185.7147
8186.9298
8189.1511
8188.0203
8187.0168
8185.5296
8184.383
8183.2497
8182.3656
8181.6273
8181.0575
8180.6106
8180.2738
8180.0249
8179.8502
8179.739
8179.6853
8179.6853
8179.739
8179.8502
8180.0249
8180.2738
8180.6106
8181.0575
8181.6273
8182.3656
8183.2497
8184.383
8185.5296
8187.0168
8188.0203
8189.1511
8191.5076
8190.485
8189.5308
8188.0274
8186.8268
8185.604
8184.6136
8183.7719
8183.1088
8182.5871
8182.1889
8181.892
8181.6811
8181.546
8181.4807
8181.4807
8181.546
8181.6811
8181.892
8182.1889
8182.5871
8183.1088
8183.7719
8184.6136
8185.604
8186.8268
8188.0274
8189.5308
8190.485
8191.5076
8193.8777
8192.9903
8192.1071
8190.618
8189.3962
8188.1053
8187.025
8186.0847
8185.3252
8184.7193
8184.2529
8183.9015
8183.65
8183.488
8183.4095
8183.4095
8183.488
8183.65
8183.9015
8184.2529
8184.7193
8185.3252
8186.0847
8187.025
8188.1053
8189.3962
8190.618
8192.1071
8192.9903
8193.8777
8196.2075
8195.4677
8194.6708
8193.2305
8192.0199
8190.6847
8189.534
8188.5057
8187.6549
8186.963
8186.423
8186.0152
8185.7201
8185.5289
8185.436
8185.436
8185.5289
8185.7201
8186.0152
8186.423
8186.963
8187.6549
8188.5057
8189.534
8190.6847
8192.0199
8193.2305
8194.6708
8195.4677
8196.2075
8198.4965
8197.9004
8197.2037
8195.8335
8194.6634
8193.3101
8192.111
8191.0084
8190.0752
8189.301
8188.6862
8188.2174
8187.8779
8187.6565
8187.5483
8187.5483
8187.6565
8187.8779
8188.2174
8188.6862
8189.301
8190.0752
8191.0084
8192.111
8193.3101
8194.6634
8195.8335
8197.2037
8197.9004
8198.4965
8200.752
8200.2856
8199.692
8198.4088
8197.3072
8195.9636
8194.7406
8193.5806
8192.5762
8191.726
8191.039
8190.5078
8190.1201
8189.8667
8189.7431
8189.7431
8189.8667
8190.1201
8190.5078
8191.039
8191.726
8192.5762
8193.5806
8194.7406
8195.9636
8197.3072
8198.4088
8199.692
8200.2856
8200.752
8202.991
8202.6272
8202.108
8200.9423
8199.9365
8198.6291
8197.4083
8196.2108
8195.1498
8194.2324
8193.4783
8192.8868
8192.4502
8192.1629
8192.0221
8192.0221
8192.1629
8192.4502
8192.8868
8193.4783
8194.2324
8195.1498
8196.2108
8197.4083
8198.6291
8199.9365
8200.9423
8202.108
8202.6272
8202.991
8205.232
8204.9416
8204.4759
8203.4387
8202.5411
8201.2927
8200.0994
8198.887
8197.787
8196.8143
8196.0009
8195.3532
8194.8706
8194.5503
8194.3919
8194.3919
8194.5503
8194.8706
8195.3532
8196.0009
8196.8143
8197.787
8198.887
8200.0994
8201.2927
8202.5411
8203.4387
8204.4759
8204.9416
8205.232
8207.4916
8207.2465
8206.8186
8205.9042
8205.1168
8203.9448
8202.8016
8201.5974
8200.4785
8199.4655
8198.6033
8197.9063
8197.382
8197.0315
8196.8564
8196.8564
8197.0315
8197.382
8197.9063
8198.6033
8199.4655
8200.4785
8201.5974
8202.8016
8203.9448
8205.1168
8205.9042
8206.8186
8207.2465
8207.4916
8209.7824
8209.5561
8209.1483
8208.3448
8207.6626
8206.5788
8205.5052
8204.3317
8203.2153
8202.1797
8201.2821
8200.5451
8199.9851
8199.6078
8199.4179
8199.4179
8199.6078
8199.9851
8200.5451
8201.2821
8202.1797
8203.2153
8204.3317
8205.5052
8206.5788
8207.6626
8208.3448
8209.1483
8209.5561
8209.7824
8212.1127
8211.8824
8211.4773
8210.7681
8210.1808
8209.1916
8208.2035
8207.0814
8205.989
8204.9501
8204.0328
8203.2674
8202.6795
8202.2803
8202.0781
8202.0781
8202.2803
8202.6795
8203.2674
8204.0328
8204.9501
8205.989
8207.0814
8208.2035
8209.1917
8210.1808
8210.7681
8211.4773
8211.8824
8212.1127
8214.4892
8214.2367
8213.82
8213.1836
8212.6765
8211.7839
8210.8924
8209.8392
8208.7917
8207.7697
8206.8503
8206.0701
8205.4642
8205.0494
8204.838
8204.838
8205.0494
8205.4642
8206.0701
8206.8503
8207.7697
8208.7917
8209.8392
8210.8924
8211.7839
8212.6765
8213.1836
8213.82
8214.2367
8214.4892
8216.9133
8216.6265
8216.1873
8215.6006
8215.1581
8214.3588
8213.5702
8212.5999
8211.6162
8210.6312
8209.7281
8208.9486
8208.3363
8207.9136
8207.697
8207.697
8207.9136
8208.3363
8208.9486
8209.7281
8210.6312
8211.6162
8212.5999
8213.5702
8214.3588
8215.1581
8215.6006
8216.1873
8216.6265
8216.9133
8219.3799
8219.0553
8218.5863
8218.0279
8217.6319
8216.9206
8216.2371
8215.3602
8214.4565
8213.5272
8212.6593
8211.8969
8211.2911
8210.8695
8210.6521
8210.6521
8210.8695
8211.2911
8211.8969
8212.6593
8213.5272
8214.4565
8215.3602
8216.2371
8216.9206
8217.6319
8218.0279
8218.5863
8219.0553
8219.3799
8221.8824
8221.5248
8221.0224
8220.4747
8220.1075
8219.4754
8218.8943
8218.1182
8217.3077
8216.4511
8215.6364
8214.908
8214.3223
8213.9115
8213.6985
8213.6985
8213.9115
8214.3223
8214.908
8215.6364
8216.4511
8217.3077
8218.1182
8218.8943
8219.4754
8220.1075
8220.4747
8221.0224
8221.5248
8221.8824
8224.4148
8224.0366
8223.4999
8222.9494
8222.5956
8222.0315
8221.5456
8220.8729
8220.1661
8219.397
8218.6527
8217.9745
8217.4227
8217.0326
8216.8294
8216.8294
8217.0326
8217.4227
8217.9745
8218.6527
8219.397
8220.1661
8220.8729
8221.5456
8222.0315
8222.5956
8222.9494
8223.4999
8224.0366
8224.4148
8226.974
8226.5924
8226.0227
8225.4606
8225.1087
8224.5989
8224.1965
8223.6257
8223.0294
8222.3602
8221.7015
8221.0895
8220.5851
8220.2258
8220.0376
8220.0376
8220.2258
8220.5851
8221.0895
8221.7015
8222.3602
8223.0294
8223.6257
8224.1965
8224.5989
8225.1087
8225.4606
8226.0227
8226.5924
8226.974
8229.5604
8229.1945
8228.5941
8228.0169
8227.6582
8227.1884
8226.856
8226.382
8225.8991
8225.3386
8224.7782
8224.2462
8223.8024
8223.4837
8223.3159
8223.3159
8223.4837
8223.8024
8224.2462
8224.7782
8225.3386
8225.8991
8226.382
8226.856
8227.1884
8227.6582
8228.0169
8228.5941
8229.1945
8229.5604
8232.1779
8231.8454
8231.2168
8230.625
8230.2534
8229.8104
8229.5347
8229.1493
8228.7782
8228.3316
8227.8789
8227.4386
8227.0667
8226.7977
8226.6555
8226.6555
8226.7977
8227.0667
8227.4386
8227.8789
8228.3316
8228.7782
8229.1493
8229.5347
8229.8104
8230.2534
8230.625
8231.2168
8231.8454
8232.1779
8234.8324
8234.5482
8233.8915
8233.29
8232.9012
8232.4743
8232.2428
8231.9357
8231.6704
8231.3385
8230.9994
8230.6594
8230.3687
8230.1572
8230.0448
8230.0448
8230.1572
8230.3687
8230.6594
8230.9994
8231.3385
8231.6704
8231.9357
8232.2428
8232.4743
8232.9012
8233.29
8233.8915
8234.5482
8234.8324
8237.5263
8237.3061
8236.6218
8236.0171
8235.6085
8235.1892
8234.9901
8234.7498
8234.581
8234.3602
8234.1365
8233.9018
8233.6985
8233.5499
8233.4706
8233.4706
8233.5499
8233.6985
8233.9018
8234.1365
8234.3602
8234.581
8234.7498
8234.9901
8235.1892
8235.6085
8236.0171
8236.6218
8237.3061
8237.5263
8240.2619
8240.1219
8239.4126
8238.8122
8238.3824
8237.9647
8237.7874
8237.6017
8237.5179
8237.401
8237.2902
8237.1617
8237.0486
8236.9657
8236.9212
8236.9212
8236.9657
8237.0486
8237.1617
8237.2902
8237.401
8237.5179
8237.6017
8237.7874
8237.9647
8238.3824
8238.8122
8239.4126
8240.1219
8240.2619
8243.0502
8242.9987
8242.2653
8241.6785
8241.2268
8240.8096
8240.6456
8240.5027
8240.491
8240.4677
8240.4635
8240.4382
8240.4147
8240.3978
8240.3882
8240.3882
8240.3978
8240.4147
8240.4382
8240.4635
8240.4677
8240.491
8240.5027
8240.6456
8240.8096
8241.2268
8241.6785
8242.2653
8242.9987
8243.0502
8245.898
8245.9395
8245.1801
8244.6173
8244.1467
8243.7303
8243.5723
8243.4611
8243.5081
8243.5658
8243.6585
8243.73
8243.7921
8243.839
8243.8632
8243.8632
8243.839
8243.7921
8243.73
8243.6585
8243.5658
8243.5081
8243.4611
8243.5723
8243.7303
8244.1467
8244.6173
8245.1801
8245.9395
8245.898
8248.8042
8248.9497
8248.1593
8247.6304
8247.1446
8246.7303
8246.5726
8246.4824
8246.574
8246.6983
8246.8749
8247.0334
8247.1742
8247.2802
8247.336
8247.336
8247.2802
8247.1742
8247.0334
8246.8749
8246.6983
8246.574
8246.4824
8246.5726
8246.7303
8247.1446
8247.6304
8248.1593
8248.9497
8248.8042
8251.7775
8252.0361
8251.2073
8250.7211
8250.2228
8249.813
8249.6512
8249.5728
8249.6946
8249.8694
8250.1145
8250.347
8250.5565
8250.7143
8250.7979
8250.7979
8250.7143
8250.5565
8250.347
8250.1145
8249.8694
8249.6946
8249.5728
8249.6512
8249.813
8250.2228
8250.7211
8251.2073
8252.0361
8251.7775
8254.8367
8255.2073
8254.3301
8253.8936
8253.3843
8252.9824
8252.8138
8252.7392
8252.8775
8253.0862
8253.3823
8253.6734
8253.9389
8254.1392
8254.2458
8254.2458
8254.1392
8253.9389
8253.6734
8253.3823
8253.0862
8252.8775
8252.7392
8252.8138
8252.9824
8253.3843
8253.8936
8254.3301
8255.2073
8254.8367
8257.9938
8258.4759
8257.5342
8257.1519
8256.6313
8256.2401
8256.0632
8255.9859
8256.1282
8256.3542
8256.6829
8257.015
8257.3219
8257.554
8257.6778
8257.6778
8257.554
8257.3219
8257.015
8256.6829
8256.3542
8256.1282
8255.9859
8256.0632
8256.2401
8256.6313
8257.1519
8257.5342
8258.4759
8257.9938
8261.2498
8261.8367
8260.8224
8260.4986
8259.9638
8259.5856
8259.3987
8259.3136
8259.4484
8259.6758
8260.018
8260.3722
8260.7045
8260.9564
8261.0907
8261.0907
8260.9564
8260.7045
8260.3722
8260.018
8259.6758
8259.4484
8259.3136
8259.3987
8259.5856
8259.9638
8260.4986
8260.8224
8261.8367
8261.2498
8264.6025
8265.2804
8264.1981
8263.9358
8263.382
8263.0177
8262.8192
8262.7218
8262.8389
8263.0527
8263.3894
8263.7459
8264.0862
8264.345
8264.4831
8264.4831
8264.345
8264.0862
8263.7459
8263.3894
8263.0527
8262.8389
8262.7218
8262.8192
8263.0177
8263.382
8263.9358
8264.1981
8265.2804
8264.6025
8268.0545
8268.823
8267.6695
8267.4655
8266.8859
8266.5358
8266.3228
8266.2092
8266.2995
8266.4858
8266.7988
8267.1379
8267.4686
8267.7214
8267.8569
8267.8569
8267.7214
8267.4686
8267.1379
8266.7988
8266.4858
8266.2995
8266.2092
8266.3228
8266.5358
8266.8859
8267.4655
8267.6695
8268.823
8268.0545
8271.6175
8272.4711
8271.242
8271.0902
8270.4769
8270.1391
8269.9073
8269.7735
8269.8288
8269.9749
8270.2477
8270.5516
8270.856
8271.0901
8271.2165
8271.2165
8271.0901
8270.856
8270.5516
8270.2477
8269.9749
8269.8288
8269.7735
8269.9073
8270.1391
8270.4769
8271.0902
8271.242
8272.4711
8271.6175
8275.299
8276.2249
8274.9184
8274.8118
8274.1561
8273.8267
8273.57
8273.4114
8273.4241
8273.5196
8273.7381
8273.991
8274.2538
8274.4575
8274.5685
8274.5685
8274.4575
8274.2538
8273.991
8273.7381
8273.5196
8273.4241
8273.4114
8273.57
8273.8267
8274.1561
8274.8118
8274.9184
8276.2249
8275.299
8279.0912
8280.0806
8278.7001
8278.6316
8277.9241
8277.5974
8277.3086
8277.1199
8277.0829
8277.1191
8277.272
8277.4604
8277.6682
8277.831
8277.921
8277.921
8277.831
8277.6682
8277.4604
8277.272
8277.1191
8277.0829
8277.1199
8277.3086
8277.5974
8277.9241
8278.6316
8278.7001
8280.0806
8279.0912
8282.9968
8284.0373
8282.5876
8282.5506
8281.7813
8281.4503
8281.1211
8280.8965
8280.8031
8280.773
8280.851
8280.9642
8281.1062
8281.2197
8281.2841
8281.2841
8281.2197
8281.1062
8280.9642
8280.851
8280.773
8280.8031
8280.8965
8281.1211
8281.4503
8281.7814
8282.5506
8282.5876
8284.0373
8282.9968
8287.0205
8288.0938
8286.5817
8286.5689
8285.7292
8285.3861
8285.0069
8284.7398
8284.5834
8284.4811
8284.4772
8284.5074
8284.5756
8284.6336
8284.6691
8284.6691
8284.6336
8284.5756
8284.5074
8284.4772
8284.4811
8284.5834
8284.7398
8285.0069
8285.3861
8285.7292
8286.5689
8286.5817
8288.0938
8287.0205
8291.1615
8292.2549
8290.6851
8290.687
8289.7698
8289.4063
8288.9666
8288.6501
8288.4238
8288.2436
8288.153
8288.0958
8288.0857
8288.0846
8288.0894
8288.0894
8288.0846
8288.0857
8288.0958
8288.153
8288.2436
8288.4238
8288.6501
8288.9666
8289.4063
8289.7698
8290.687
8290.6851
8292.2549
8291.1615
8295.4193
8296.5275
8294.9012
8294.9058
8293.9041
8293.511
8293.0002
8292.6271
8292.3251
8292.0629
8291.882
8291.7361
8291.6465
8291.5852
8291.5586
8291.5586
8291.5852
8291.6465
8291.7361
8291.882
8292.0629
8292.3251
8292.6271
8293.0002
8293.511
8293.9041
8294.9058
8294.9012
8296.5275
8295.4193
8299.7933
8300.9108
8299.2258
8299.2244
8298.1314
8297.6995
8297.1076
8296.6709
8296.2878
8295.9417
8295.6693
8295.4351
8295.2672
8295.1467
8295.0889
8295.0889
8295.1467
8295.2672
8295.4351
8295.6693
8295.9417
8296.2878
8296.671
8297.1076
8297.6995
8298.1314
8299.2245
8299.2258
8300.9108
8299.7933
8304.2814
8305.4
8303.6541
8303.6394
8302.4506
8301.9713
8301.2894
8300.7828
8300.3137
8299.883
8299.5202
8299.1993
8298.9556
8298.7784
8298.6904
8298.6904
8298.7784
8298.9556
8299.1993
8299.5202
8299.883
8300.3137
8300.7828
8301.2894
8301.9713
8302.4506
8303.6394
8303.6541
8305.4001
8304.2814
8308.8839
8309.9996
8308.1885
8308.1496
8306.8622
8306.327
8305.5477
8304.9652
8304.4057
8303.8899
8303.439
8303.0349
8302.7196
8302.4893
8302.3731
8302.3731
8302.4893
8302.7196
8303.0349
8303.439
8303.8899
8304.4057
8304.9652
8305.5477
8306.327
8306.8622
8308.1496
8308.1885
8309.9996
8308.8839
8313.598
8314.7032
8312.8298
8312.7555
8311.3674
8310.7689
8309.8855
8309.2215
8308.5677
8307.9667
8307.4307
8306.949
8306.5677
8306.2893
8306.1476
8306.1476
8306.2893
8306.5677
8306.949
8307.4307
8307.9667
8308.5677
8309.2215
8309.8855
8310.7689
8311.3674
8312.7555
8312.8298
8314.7032
8313.598
8318.4202
8319.507
8317.574
8317.4554
8315.9659
8315.2977
8314.3055
8313.5556
8312.8047
8312.119
8311.5013
8310.9483
8310.5078
8310.1873
8310.0233
8310.0233
8310.1873
8310.5078
8310.9483
8311.5013
8312.119
8312.8047
8313.5556
8314.3055
8315.2977
8315.9659
8317.4554
8317.574
8319.5071
8318.4202
8323.3386
8324.4097
8322.4154
8322.2466
8320.6556
8319.9132
8318.8098
8317.9715
8317.1224
8316.3537
8315.6584
8315.0408
8314.5488
8314.1924
8314.0095
8314.0095
8314.1924
8314.5488
8315.0408
8315.6584
8316.3537
8317.1224
8317.9715
8318.8099
8319.9132
8320.6556
8322.2466
8322.4154
8324.4097
8323.3386
8328.3712
8329.4179
8327.3504
8327.1264
8325.4353
8324.6153
8323.4003
8322.4728
8321.5262
8320.6779
8319.9103
8319.2351
8318.6986
8318.3126
8318.1147
8318.1147
8318.3126
8318.6986
8319.2351
8319.9103
8320.678
8321.5262
8322.4728
8323.4003
8324.6153
8325.4353
8327.1264
8327.3504
8329.4179
8328.3712
8333.5194
8334.5498
8332.3799
8332.0956
8330.3054
8329.405
8328.0794
8327.0634
8326.0214
8325.0978
8324.2637
8323.5381
8322.9642
8322.5551
8322.3457
8322.3457
8322.5551
8322.9642
8323.5381
8324.2637
8325.0978
8326.0214
8327.0634
8328.0794
8329.405
8330.3054
8332.0956
8332.3799
8334.5498
8333.5194
8338.7727
8339.7632
8337.4976
8337.155
8335.2673
8334.285
8332.8516
8331.7485
8330.6146
8329.6206
8328.7261
8327.9575
8327.3534
8326.9272
8326.7099
8326.7099
8326.9272
8327.3534
8327.9575
8328.7261
8329.6206
8330.6146
8331.7485
8332.8516
8334.285
8335.2673
8337.155
8337.4976
8339.7632
8338.7727
8344.1229
8345.0573
8342.7042
8342.3053
8340.3227
8339.259
8337.7222
8336.5352
8335.3143
8334.2554
8333.3068
8332.5022
8331.8745
8331.4364
8331.2139
8331.2139
8331.4364
8331.8745
8332.5022
8333.3068
8334.2554
8335.3143
8336.5352
8337.7222
8339.259
8340.3227
8342.3053
8342.7042
8345.0573
8344.1229
8349.5669
8350.4601
8348.0069
8347.5511
8345.475
8344.3313
8342.6965
8341.4306
8340.1289
8339.0113
8338.015
8337.1807
8336.5348
8336.0889
8335.8635
8335.8635
8336.0889
8336.5348
8337.1807
8338.015
8339.0113
8340.1289
8341.4306
8342.6965
8344.3313
8345.475
8347.5511
8348.0069
8350.4601
8349.5669
8355.0992
8355.9762
8353.4088
8352.8977
8350.7278
8349.5069
8347.7802
8346.4414
8345.0663
8343.8965
8342.8587
8342.0003
8341.341
8340.8905
8340.6639
8340.6639
8340.8905
8341.341
8342.0003
8342.8587
8343.8965
8345.0663
8346.4414
8347.7802
8349.5069
8350.7278
8352.8977
8353.4088
8355.9762
8355.0992
8360.7161
8361.6022
8358.9106
8358.3489
8356.0848
8354.7912
8352.9799
8351.5747
8350.1342
8348.919
8347.8456
8346.968
8346.2989
8345.846
8345.6194
8345.6194
8345.846
8346.2989
8346.968
8347.8456
8348.919
8350.1342
8351.5747
8352.9799
8354.7912
8356.0848
8358.3489
8358.9106
8361.6022
8360.7161
8366.4176
8367.3373
8364.5188
8363.9078
8361.5505
8360.1903
8358.3019
8356.8379
8355.3403
8354.0864
8352.983
8352.0904
8351.4145
8350.9608
8350.7349
8350.7349
8350.9608
8351.4145
8352.0904
8352.983
8354.0864
8355.3403
8356.8379
8358.3019
8360.1903
8361.5505
8363.9078
8364.5188
8367.3373
8366.4176
8372.2027
8373.1801
8370.231
8369.5745
8367.1294
8365.7104
8363.7529
8362.2387
8360.6928
8359.4071
8358.2791
8357.3751
8356.6945
8356.2412
8356.0164
8356.0164
8356.2412
8356.6945
8357.3751
8358.2791
8359.4071
8360.6928
8362.2387
8363.7529
8365.7104
8367.1294
8369.5745
8370.231
8373.1801
8372.2027
8378.0659
8379.1301
8376.0399
8375.3499
8372.8261
8371.3581
8369.3403
8367.7852
8366.2007
8364.8901
8363.7425
8362.8303
8362.1462
8361.6937
8361.4701
8361.4701
8361.6937
8362.1462
8362.8303
8363.7425
8364.8901
8366.2007
8367.7852
8369.3403
8371.3581
8372.8261
8375.3499
8376.0399
8379.1301
8378.0659
8383.9954
8385.191
8381.95
8381.2407
8378.6459
8377.1392
8375.0724
8373.4869
8371.8727
8370.544
8369.3819
8368.4644
8367.7777
8367.3261
8367.1033
8367.1033
8367.3261
8367.7777
8368.4644
8369.3819
8370.544
8371.8727
8373.4869
8375.0724
8377.1392
8378.6459
8381.2407
8381.95
8385.191
8383.9954
8390.0004
8391.3735
8387.9717
8387.256
8384.5966
8383.062
8380.9578
8379.3515
8377.7163
8376.3765
8375.2049
8374.2848
8373.5965
8373.1458
8372.9237
8372.9237
8373.1458
8373.5965
8374.2848
8375.2049
8376.3765
8377.7163
8379.3515
8380.9578
8383.062
8384.5966
8387.256
8387.9717
8391.3735
8390.0004
8396.1006
8397.6916
8394.1156
8393.4051
8390.6885
8389.1361
8387.0043
8385.3863
8383.7384
8382.3943
8381.218
8380.2981
8379.6092
8379.1596
8378.9379
8378.9379
8379.1596
8379.6092
8380.2981
8381.218
8382.3943
8383.7384
8385.3863
8387.0043
8389.1361
8390.6885
8393.4051
8394.1156
8397.6916
8396.1006
8402.307
8404.1576
8400.3949
8399.7003
8396.9326
8395.3713
8393.2205
8391.599
8389.9459
8388.6037
8387.4275
8386.5099
8385.8215
8385.3732
8385.1517
8385.1517
8385.3732
8385.8215
8386.5099
8387.4275
8388.6037
8389.9459
8391.599
8393.2205
8395.3713
8396.9326
8399.7004
8400.3949
8404.1576
8402.307
8408.6271
8410.785
8406.8212
8406.1536
8403.3389
8401.7771
8399.6153
8397.9979
8396.3463
8395.0113
8393.839
8392.926
8392.2394
8391.7926
8391.5712
8391.5712
8391.7926
8392.2394
8392.926
8393.839
8395.0113
8396.3463
8397.9979
8399.6153
8401.7771
8403.3389
8406.1536
8406.8212
8410.785
8408.6271
8415.0703
8417.5868
8413.4061
8412.7732
8409.9163
8408.3628
8406.1977
8404.5913
8402.9471
8401.6236
8400.4587
8399.5525
8398.8689
8398.4239
8398.2028
8398.2028
8398.4239
8398.8689
8399.5525
8400.4588
8401.6236
8402.9471
8404.5913
8406.1977
8408.3628
8409.9163
8412.7732
8413.4061
8417.5868
8415.0703
8421.6484
8424.5691
8420.1597
8419.5708
8416.6755
8415.1383
8412.9763
8411.3872
8409.7555
8408.4473
8407.2928
8406.3953
8405.716
8405.2735
8405.0528
8405.0528
8405.2735
8405.716
8406.3953
8407.2928
8408.4473
8409.7555
8411.3872
8412.9763
8415.1383
8416.6755
8419.5709
8420.1597
8424.5691
8421.6484
8428.3786
8431.747
8427.0904
8426.5589
8423.6289
8422.1142
8419.9606
8418.3934
8416.7782
8415.4884
8414.3468
8413.46
8412.7861
8412.3467
8412.1269
8412.1269
8412.3467
8412.7861
8413.46
8414.3468
8415.4884
8416.7782
8418.3934
8419.9606
8422.1142
8423.6289
8426.5589
8427.0904
8431.747
8428.3786
8435.2666
8439.1468
8434.2031
8433.7446
8430.7872
8429.3001
8427.1578
8425.6152
8424.0188
8422.7492
8421.6223
8420.7474
8420.0798
8419.6443
8419.4259
8419.4259
8419.6443
8420.0798
8420.7474
8421.6223
8422.7492
8424.0188
8425.6152
8427.1578
8429.3001
8430.7872
8433.7446
8434.2031
8439.1468
8435.2666
8442.301
8446.7679
8441.5049
8441.1366
8438.1563
8436.6982
8434.5674
8433.0499
8431.4731
8430.2245
8429.1134
8428.2512
8427.5908
8427.1599
8426.9433
8426.9433
8427.1599
8427.5908
8428.2512
8429.1134
8430.2245
8431.4731
8433.0499
8434.5674
8436.6982
8438.1563
8441.1366
8441.5049
8446.768
8442.301
8449.4396
8454.615
8449.0116
8448.7459
8445.7369
8444.3079
8442.1871
8440.6931
8439.1355
8437.9079
8436.8133
8435.9644
8435.3122
8434.8867
8434.6725
8434.6725
8434.8867
8435.3122
8435.9644
8436.8133
8437.9079
8439.1355
8440.6931
8442.1871
8444.3079
8445.7369
8448.7459
8449.0116
8454.6151
8449.4396
8456.752
8462.7278
8456.7482
8456.5866
8453.5345
8452.133
8450.0176
8448.5443
8447.0044
8445.7971
8444.719
8443.884
8443.2408
8442.8216
8442.6104
8442.6104
8442.8216
8443.2408
8443.884
8444.719
8445.7971
8447.0044
8448.5443
8450.0176
8452.133
8453.5345
8456.5866
8456.7482
8462.7278
8456.752
8464.2748
8471.1297
8464.7332
8464.6758
8461.5625
8460.1822
8458.0644
8456.6074
8455.0826
8453.894
8452.8321
8452.011
8451.3776
8450.9656
8450.7578
8450.7578
8450.9656
8451.3776
8452.011
8452.8321
8453.894
8455.0826
8456.6074
8458.0644
8460.1822
8461.5626
8464.6758
8464.7332
8471.1297
8464.2748
8472.0109
8479.8269
8472.9765
8473.0298
8469.8382
8468.4672
8466.3311
8464.8825
8463.3691
8462.1971
8461.1502
8460.3427
8459.7194
8459.315
8459.1111
8459.1111
8459.315
8459.7194
8460.3427
8461.1502
8462.1971
8463.3691
8464.8825
8466.3311
8468.4672
8469.8382
8473.0298
8472.9765
8479.8269
8472.0109
8479.9654
8488.8291
8481.487
8481.663
8478.377
8477.0003
8474.8376
8473.3949
8471.8896
8470.7312
8469.6978
8468.9031
8468.2901
8467.8937
8467.6941
8467.6941
8467.8937
8468.2901
8468.9031
8469.6978
8470.7312
8471.8896
8473.3949
8474.8376
8477.0003
8478.377
8481.663
8481.487
8488.8291
8479.9654
8488.155
8498.1405
8490.2765
8490.5885
8487.1948
8485.801
8483.6229
8482.1879
8480.6873
8479.539
8478.5169
8477.7338
8477.1306
8476.7425
8476.5473
8476.5473
8476.7425
8477.1306
8477.7338
8478.5169
8479.539
8480.6873
8482.1879
8483.6229
8485.801
8487.1948
8490.5885
8490.2765
8498.1405
8488.155
8496.5951
8507.7507
8499.3629
8499.8152
8496.3076
8494.896
8492.7073
8491.2735
8489.7728
8488.6308
8487.6168
8486.8428
8486.2482
8485.8675
8485.6765
8485.6765
8485.8675
8486.2482
8486.8428
8487.6168
8488.6308
8489.7728
8491.2735
8492.7073
8494.896
8496.3076
8499.8152
8499.3629
8507.7507
8496.5951
8505.2999
8517.6368
8508.751
8509.3446
8505.7209
8504.2986
8502.0924
8500.6501
8499.144
8498.0032
8496.9936
8496.2258
8495.6378
8495.2633
8495.076
8495.076
8495.2633
8495.6378
8496.2258
8496.9936
8498.0032
8499.144
8500.6501
8502.0924
8504.2986
8505.7209
8509.3446
8508.751
8517.6368
8505.2999
8514.238
8527.7865
8518.4309
8519.1796
8515.4408
8514.0123
8511.7817
8510.3236
8508.8072
8507.6623
8506.6528
8505.8878
8505.3043
8504.9346
8504.7504
8504.7504
8504.9346
8505.3043
8505.8878
8506.6528
8507.6623
8508.8072
8510.3237
8511.7817
8514.0123
8515.4408
8519.1797
8518.4309
8527.7865
8514.238
8523.4104
8538.1987
8528.4093
8529.332
8525.4845
8524.0492
8521.7899
8520.3112
8518.7797
8517.625
8516.6109
8515.8449
8515.2631
8514.8965
8514.7145
8514.7145
8514.8965
8515.2631
8515.8449
8516.6109
8517.625
8518.7797
8520.3112
8521.7899
8524.0492
8525.4845
8529.332
8528.4093
8538.1987
8523.4104
8532.8463
8548.8697
8538.7028
8539.8076
8535.8618
8534.4185
8532.1288
8530.6261
8529.076
8527.9064
8526.8834
8526.1126
8525.5297
8525.1643
8524.9835
8524.9835
8525.1643
8525.5297
8526.1126
8526.8834
8527.9064
8529.076
8530.6261
8532.1288
8534.4185
8535.8618
8539.8076
8538.7028
8548.8697
8532.8463
8542.5782
8559.7924
8549.3204
8550.603
8546.5709
8545.1143
8542.791
8541.2606
8539.6896
8538.5021
8537.4677
8536.6891
8536.1028
8535.7367
8535.5564
8535.5564
8535.7367
8536.1028
8536.6891
8537.4677
8538.5022
8539.6896
8541.2606
8542.791
8545.1143
8546.5709
8550.603
8549.3204
8559.7924
8542.5782
8552.6342
8570.9567
8560.2622
8561.7131
8557.6105
8556.1354
8553.7764
8552.2143
8550.6195
8549.4105
8548.3612
8547.5716
8546.9791
8546.6106
8546.4298
8546.4298
8546.6106
8546.9791
8547.5716
8548.3612
8549.4105
8550.6195
8552.2143
8553.7764
8556.1354
8557.6106
8561.7131
8560.2622
8570.9568
8552.6342
8563.0294
8582.339
8571.5248
8573.1319
8568.9788
8567.4823
8565.0879
8563.4916
8561.8707
8560.6364
8559.5688
8558.7646
8558.1633
8557.7904
8557.6082
8557.6082
8557.7904
8558.1633
8558.7646
8559.5688
8560.6364
8561.8707
8563.4916
8565.0879
8567.4823
8568.9788
8573.1319
8571.5248
8582.3391
8563.0294
8573.771
8593.914
8583.1042
8584.8525
8580.6692
8579.148
8576.7199
8575.0883
8573.4402
8572.1782
8571.09
8570.2686
8569.6561
8569.2772
8569.0926
8569.0926
8569.2772
8569.6561
8570.2686
8571.09
8572.1782
8573.4402
8575.0883
8576.7199
8579.148
8580.6693
8584.8525
8583.1042
8593.914
8573.771
8584.8705
8605.6606
8595.0002
8596.8717
8592.6709
8591.1186
8588.6598
8586.9924
8585.3175
8584.0267
8582.9164
8582.0758
8581.4506
8581.0643
8580.8767
8580.8767
8581.0643
8581.4506
8582.0758
8582.9164
8584.0267
8585.3175
8586.9924
8588.6598
8591.1187
8592.6709
8596.8717
8595.0002
8605.6606
8584.8705
8596.35
8617.5893
8607.2332
8609.2369
8604.9864
8603.394
8600.9063
8599.2007
8597.4978
8596.176
8595.0415
8594.1793
8593.5392
8593.1441
8592.9527
8592.9528
8593.1441
8593.5392
8594.1793
8595.0415
8596.176
8597.4978
8599.2007
8600.9063
8603.394
8604.9864
8609.2369
8607.2332
8617.5893
8596.3501
8608.236
8629.7222
8619.8069
8621.9316
8617.6188
8615.9937
8613.4777
8611.7301
8609.9967
8608.6404
8607.4782
8606.5909
8605.9333
8605.5276
8605.3316
8605.3316
8605.5276
8605.9333
8606.5909
8607.4782
8608.6404
8609.9967
8611.7301
8613.4777
8615.9937
8617.6188
8621.9316
8619.8069
8629.7222
8608.236
8620.544
8642.1067
8632.7203
8634.8894
8630.5761
8628.9393
8626.3971
8624.606
8622.841
8621.4473
8620.2547
8619.3395
8618.6622
8618.2443
8618.0429
8618.0429
8618.2443
8618.6622
8619.3395
8620.2547
8621.4473
8622.841
8624.606
8626.3971
8628.9393
8630.5761
8634.8894
8632.7203
8642.1067
8620.544
8633.279
8654.8088
8646.0049
8648.1391
8643.8949
8642.2493
8639.6827
8637.8494
8636.0531
8634.6208
8633.3962
8632.4516
8631.7531
8631.3222
8631.115
8631.115
8631.3222
8631.7531
8632.4516
8633.3962
8634.6208
8636.0531
8637.8494
8639.6827
8642.2493
8643.8949
8648.1391
8646.0049
8654.8088
8633.2791
8646.4605
8667.8708
8659.6806
8661.7342
8657.6025
8655.9377
8653.3494
8651.4753
8649.6488
8648.1779
8646.921
8645.9461
8645.2259
8644.7817
8644.5685
8644.5685
8644.7817
8645.2259
8645.9461
8646.921
8648.1779
8649.6488
8651.4753
8653.3494
8655.9377
8657.6025
8661.7342
8659.6806
8667.8708
8646.4605
8660.1066
8681.2646
8673.7395
8675.6985
8671.7069
8670.0143
8667.4092
8665.4963
8663.6413
8662.1328
8660.8442
8659.8392
8659.0974
8658.6401
8658.4211
8658.4211
8658.6401
8659.0974
8659.8392
8660.8442
8662.1328
8663.6413
8665.4963
8667.4092
8670.0143
8671.7069
8675.6985
8673.7395
8681.2646
8660.1066
8674.2274
8694.961
8688.1658
8690.0429
8686.209
8684.4862
8681.8717
8679.9231
8678.0426
8676.4988
8675.18
8674.1459
8673.3834
8672.9138
8672.6894
8672.6894
8672.9138
8673.3834
8674.146
8675.18
8676.4988
8678.0426
8679.9231
8681.8718
8684.4862
8686.209
8690.0429
8688.1658
8694.961
8674.2274
8688.8114
8708.9826
8702.954
8704.7689
8701.1122
8699.3609
8696.7449
8694.7649
8692.8636
8691.288
8689.9415
8688.8803
8688.0986
8687.618
8687.3889
8687.3889
8687.618
8688.0986
8688.8804
8689.9415
8691.288
8692.8636
8694.7649
8696.7449
8699.3609
8701.1122
8704.7689
8702.9541
8708.9826
8688.8114
8703.8486
8723.3749
8718.1047
8719.8826
8716.425
8714.6466
8712.0362
8710.0302
8708.1139
8706.5111
8705.1406
8704.0553
8703.2567
8702.767
8702.5342
8702.5342
8702.767
8703.2567
8704.0553
8705.1406
8706.5111
8708.1139
8710.0302
8712.0362
8714.6466
8716.425
8719.8827
8718.1048
8723.3749
8703.8486
8719.3327
8738.1599
8733.6239
8735.3937
8732.1524
8730.3502
8727.7522
8725.7272
8723.8029
8722.1787
8720.7889
8719.6834
8718.871
8718.3745
8718.1393
8718.1393
8718.3746
8718.871
8719.6834
8720.7889
8722.1787
8723.8029
8725.7272
8727.7522
8730.3502
8732.1524
8735.3937
8733.624
8738.1599
8719.3327
8735.2209
8753.3471
8749.5198
8751.3089
8748.2945
8746.4759
8743.8995
8741.8642
8739.9395
8738.3011
8736.8978
8735.7769
8734.9547
8734.4544
8734.2184
8734.2184
8734.4545
8734.9547
8735.7769
8736.8978
8738.3011
8739.9395
8741.8642
8743.8996
8746.4759
8748.2945
8751.3089
8749.5198
8753.3471
8735.2209