# Location 0    : (-1.00010000e+01 1.00000000e-03 -5.00100000e+00)
# Location 1    : (-2.00010000e+01 1.00000000e-03 -5.00100000e+00)
# Location 2    : (-3.00010000e+01 1.00000000e-03 -5.00100000e+00)
# Location 3    : (-4.00010000e+01 1.00000000e-03 -5.00100000e+00)
# Location 4    : (-5.00010000e+01 1.00000000e-03 -5.00100000e+00)
# hB            : Interface height above the boundary
# hL            : Interface height above the location
# Location      0                                 1                                 2                                 3                                 4                                 
# Time          hB               hL               hB               hL               hB               hL               hB               hL               hB               hL               
60              0.00000000e+00   1.79769313e+307  0.00000000e+00   1.79769313e+307  0.00000000e+00   1.79769313e+307  0.00000000e+00   1.79769313e+307  0.00000000e+00   1.79769313e+307  
60.01111        0.00000000e+00   1.79769313e+307  0.00000000e+00   1.79769313e+307  0.00000000e+00   1.79769313e+307  0.00000000e+00   1.79769313e+307  0.00000000e+00   1.79769313e+307  
60.02222        0.00000000e+00   1.79769313e+307  0.00000000e+00   1.79769313e+307  0.00000000e+00   1.79769313e+307  0.00000000e+00   1.79769313e+307  0.00000000e+00   1.79769313e+307  
60.03194        0.00000000e+00   1.79769313e+307  0.00000000e+00   1.79769313e+307  0.00000000e+00   1.79769313e+307  0.00000000e+00   1.79769313e+307  0.00000000e+00   1.79769313e+307  
60.04167        0.00000000e+00   1.79769313e+307  0.00000000e+00   1.79769313e+307  0.00000000e+00   1.79769313e+307  0.00000000e+00   1.79769313e+307  0.00000000e+00   1.79769313e+307  
60.05139        0.00000000e+00   1.79769313e+307  0.00000000e+00   1.79769313e+307  0.00000000e+00   1.79769313e+307  0.00000000e+00   1.79769313e+307  0.00000000e+00   1.79769313e+307  
60.06111        0.00000000e+00   1.79769313e+307  0.00000000e+00   1.79769313e+307  0.00000000e+00   1.79769313e+307  0.00000000e+00   1.79769313e+307  0.00000000e+00   1.79769313e+307  
60.07083        0.00000000e+00   1.79769313e+307  0.00000000e+00   1.79769313e+307  0.00000000e+00   1.79769313e+307  0.00000000e+00   1.79769313e+307  0.00000000e+00   1.79769313e+307  
60.08056        0.00000000e+00   1.79769313e+307  0.00000000e+00   1.79769313e+307  0.00000000e+00   1.79769313e+307  0.00000000e+00   1.79769313e+307  0.00000000e+00   1.79769313e+307  
60.09028        0.00000000e+00   1.79769313e+307  0.00000000e+00   1.79769313e+307  0.00000000e+00   1.79769313e+307  0.00000000e+00   1.79769313e+307  0.00000000e+00   1.79769313e+307  
60.1            0.00000000e+00   1.79769313e+307  0.00000000e+00   1.79769313e+307  0.00000000e+00   1.79769313e+307  0.00000000e+00   1.79769313e+307  0.00000000e+00   1.79769313e+307  
60.11           0.00000000e+00   1.79769313e+307  0.00000000e+00   1.79769313e+307  0.00000000e+00   1.79769313e+307  0.00000000e+00   1.79769313e+307  0.00000000e+00   1.79769313e+307  
60.12           0.00000000e+00   1.79769313e+307  0.00000000e+00   1.79769313e+307  0.00000000e+00   1.79769313e+307  0.00000000e+00   1.79769313e+307  0.00000000e+00   1.79769313e+307  
60.13           0.00000000e+00   1.79769313e+307  0.00000000e+00   1.79769313e+307  0.00000000e+00   1.79769313e+307  0.00000000e+00   1.79769313e+307  0.00000000e+00   1.79769313e+307  
60.14           0.00000000e+00   1.79769313e+307  0.00000000e+00   1.79769313e+307  0.00000000e+00   1.79769313e+307  0.00000000e+00   1.79769313e+307  0.00000000e+00   1.79769313e+307  
60.15           0.00000000e+00   1.79769313e+307  0.00000000e+00   1.79769313e+307  0.00000000e+00   1.79769313e+307  0.00000000e+00   1.79769313e+307  0.00000000e+00   1.79769313e+307  
60.16           0.00000000e+00   1.79769313e+307  0.00000000e+00   1.79769313e+307  0.00000000e+00   1.79769313e+307  0.00000000e+00   1.79769313e+307  0.00000000e+00   1.79769313e+307  
60.17           0.00000000e+00   1.79769313e+307  0.00000000e+00   1.79769313e+307  0.00000000e+00   1.79769313e+307  0.00000000e+00   1.79769313e+307  0.00000000e+00   1.79769313e+307  
60.18           0.00000000e+00   1.79769313e+307  0.00000000e+00   1.79769313e+307  0.00000000e+00   1.79769313e+307  0.00000000e+00   1.79769313e+307  0.00000000e+00   1.79769313e+307  
60.19           0.00000000e+00   1.79769313e+307  0.00000000e+00   1.79769313e+307  0.00000000e+00   1.79769313e+307  0.00000000e+00   1.79769313e+307  0.00000000e+00   1.79769313e+307  
60.2            0.00000000e+00   1.79769313e+307  0.00000000e+00   1.79769313e+307  0.00000000e+00   1.79769313e+307  0.00000000e+00   1.79769313e+307  0.00000000e+00   1.79769313e+307  
60.21           0.00000000e+00   1.79769313e+307  0.00000000e+00   1.79769313e+307  0.00000000e+00   1.79769313e+307  0.00000000e+00   1.79769313e+307  0.00000000e+00   1.79769313e+307  
60.22           0.00000000e+00   1.79769313e+307  0.00000000e+00   1.79769313e+307  0.00000000e+00   1.79769313e+307  0.00000000e+00   1.79769313e+307  0.00000000e+00   1.79769313e+307  
60.23           0.00000000e+00   1.79769313e+307  0.00000000e+00   1.79769313e+307  0.00000000e+00   1.79769313e+307  0.00000000e+00   1.79769313e+307  0.00000000e+00   1.79769313e+307  
60.24           0.00000000e+00   1.79769313e+307  0.00000000e+00   1.79769313e+307  0.00000000e+00   1.79769313e+307  0.00000000e+00   1.79769313e+307  0.00000000e+00   1.79769313e+307  
60.25           0.00000000e+00   1.79769313e+307  0.00000000e+00   1.79769313e+307  0.00000000e+00   1.79769313e+307  0.00000000e+00   1.79769313e+307  0.00000000e+00   1.79769313e+307  
60.26           0.00000000e+00   1.79769313e+307  0.00000000e+00   1.79769313e+307  0.00000000e+00   1.79769313e+307  0.00000000e+00   1.79769313e+307  0.00000000e+00   1.79769313e+307  
60.27           0.00000000e+00   1.79769313e+307  0.00000000e+00   1.79769313e+307  0.00000000e+00   1.79769313e+307  0.00000000e+00   1.79769313e+307  0.00000000e+00   1.79769313e+307  
60.28           0.00000000e+00   1.79769313e+307  0.00000000e+00   1.79769313e+307  0.00000000e+00   1.79769313e+307  0.00000000e+00   1.79769313e+307  0.00000000e+00   1.79769313e+307  
60.29           0.00000000e+00   1.79769313e+307  0.00000000e+00   1.79769313e+307  0.00000000e+00   1.79769313e+307  0.00000000e+00   1.79769313e+307  0.00000000e+00   1.79769313e+307  
60.3            0.00000000e+00   1.79769313e+307  0.00000000e+00   1.79769313e+307  0.00000000e+00   1.79769313e+307  0.00000000e+00   1.79769313e+307  0.00000000e+00   1.79769313e+307  
60.31           0.00000000e+00   1.79769313e+307  0.00000000e+00   1.79769313e+307  0.00000000e+00   1.79769313e+307  0.00000000e+00   1.79769313e+307  0.00000000e+00   1.79769313e+307  
60.32           0.00000000e+00   1.79769313e+307  0.00000000e+00   1.79769313e+307  0.00000000e+00   1.79769313e+307  0.00000000e+00   1.79769313e+307  0.00000000e+00   1.79769313e+307  
60.33           0.00000000e+00   1.79769313e+307  0.00000000e+00   1.79769313e+307  0.00000000e+00   1.79769313e+307  0.00000000e+00   1.79769313e+307  0.00000000e+00   1.79769313e+307  
60.34           0.00000000e+00   1.79769313e+307  0.00000000e+00   1.79769313e+307  0.00000000e+00   1.79769313e+307  0.00000000e+00   1.79769313e+307  0.00000000e+00   1.79769313e+307  
60.35           0.00000000e+00   1.79769313e+307  0.00000000e+00   1.79769313e+307  0.00000000e+00   1.79769313e+307  0.00000000e+00   1.79769313e+307  0.00000000e+00   1.79769313e+307  
60.36           0.00000000e+00   1.79769313e+307  0.00000000e+00   1.79769313e+307  0.00000000e+00   1.79769313e+307  0.00000000e+00   1.79769313e+307  0.00000000e+00   1.79769313e+307  
60.37           0.00000000e+00   1.79769313e+307  0.00000000e+00   1.79769313e+307  0.00000000e+00   1.79769313e+307  0.00000000e+00   1.79769313e+307  0.00000000e+00   1.79769313e+307  
60.38           0.00000000e+00   1.79769313e+307  0.00000000e+00   1.79769313e+307  0.00000000e+00   1.79769313e+307  0.00000000e+00   1.79769313e+307  0.00000000e+00   1.79769313e+307  
60.39           0.00000000e+00   1.79769313e+307  0.00000000e+00   1.79769313e+307  0.00000000e+00   1.79769313e+307  0.00000000e+00   1.79769313e+307  0.00000000e+00   1.79769313e+307  
60.4            0.00000000e+00   1.79769313e+307  0.00000000e+00   1.79769313e+307  0.00000000e+00   1.79769313e+307  0.00000000e+00   1.79769313e+307  0.00000000e+00   1.79769313e+307  
60.41           0.00000000e+00   1.79769313e+307  0.00000000e+00   1.79769313e+307  0.00000000e+00   1.79769313e+307  0.00000000e+00   1.79769313e+307  0.00000000e+00   1.79769313e+307  
60.42           0.00000000e+00   1.79769313e+307  0.00000000e+00   1.79769313e+307  0.00000000e+00   1.79769313e+307  0.00000000e+00   1.79769313e+307  0.00000000e+00   1.79769313e+307  
60.43           0.00000000e+00   1.79769313e+307  0.00000000e+00   1.79769313e+307  0.00000000e+00   1.79769313e+307  0.00000000e+00   1.79769313e+307  0.00000000e+00   1.79769313e+307  
60.44           0.00000000e+00   1.79769313e+307  0.00000000e+00   1.79769313e+307  0.00000000e+00   1.79769313e+307  0.00000000e+00   1.79769313e+307  0.00000000e+00   1.79769313e+307  
60.45           0.00000000e+00   1.79769313e+307  0.00000000e+00   1.79769313e+307  0.00000000e+00   1.79769313e+307  0.00000000e+00   1.79769313e+307  0.00000000e+00   1.79769313e+307  
60.46           0.00000000e+00   1.79769313e+307  0.00000000e+00   1.79769313e+307  0.00000000e+00   1.79769313e+307  0.00000000e+00   1.79769313e+307  0.00000000e+00   1.79769313e+307  
60.47           0.00000000e+00   1.79769313e+307  0.00000000e+00   1.79769313e+307  0.00000000e+00   1.79769313e+307  0.00000000e+00   1.79769313e+307  0.00000000e+00   1.79769313e+307  
60.48           0.00000000e+00   1.79769313e+307  0.00000000e+00   1.79769313e+307  0.00000000e+00   1.79769313e+307  0.00000000e+00   1.79769313e+307  0.00000000e+00   1.79769313e+307  
60.49           0.00000000e+00   1.79769313e+307  0.00000000e+00   1.79769313e+307  0.00000000e+00   1.79769313e+307  0.00000000e+00   1.79769313e+307  0.00000000e+00   1.79769313e+307  
60.5            0.00000000e+00   1.79769313e+307  0.00000000e+00   1.79769313e+307  0.00000000e+00   1.79769313e+307  0.00000000e+00   1.79769313e+307  0.00000000e+00   1.79769313e+307  
60.51           0.00000000e+00   1.79769313e+307  0.00000000e+00   1.79769313e+307  0.00000000e+00   1.79769313e+307  0.00000000e+00   1.79769313e+307  0.00000000e+00   1.79769313e+307  
60.52           0.00000000e+00   1.79769313e+307  0.00000000e+00   1.79769313e+307  0.00000000e+00   1.79769313e+307  0.00000000e+00   1.79769313e+307  0.00000000e+00   1.79769313e+307  
60.53           0.00000000e+00   1.79769313e+307  0.00000000e+00   1.79769313e+307  0.00000000e+00   1.79769313e+307  0.00000000e+00   1.79769313e+307  0.00000000e+00   1.79769313e+307  
60.54           0.00000000e+00   1.79769313e+307  0.00000000e+00   1.79769313e+307  0.00000000e+00   1.79769313e+307  0.00000000e+00   1.79769313e+307  0.00000000e+00   1.79769313e+307  
60.55           0.00000000e+00   1.79769313e+307  0.00000000e+00   1.79769313e+307  0.00000000e+00   1.79769313e+307  0.00000000e+00   1.79769313e+307  0.00000000e+00   1.79769313e+307  
60.56           0.00000000e+00   1.79769313e+307  0.00000000e+00   1.79769313e+307  0.00000000e+00   1.79769313e+307  0.00000000e+00   1.79769313e+307  0.00000000e+00   1.79769313e+307  
60.57           0.00000000e+00   1.79769313e+307  0.00000000e+00   1.79769313e+307  0.00000000e+00   1.79769313e+307  0.00000000e+00   1.79769313e+307  0.00000000e+00   1.79769313e+307  
60.58           0.00000000e+00   1.79769313e+307  0.00000000e+00   1.79769313e+307  0.00000000e+00   1.79769313e+307  0.00000000e+00   1.79769313e+307  0.00000000e+00   1.79769313e+307  
60.59           0.00000000e+00   1.79769313e+307  0.00000000e+00   1.79769313e+307  0.00000000e+00   1.79769313e+307  0.00000000e+00   1.79769313e+307  0.00000000e+00   1.79769313e+307  
60.6            0.00000000e+00   1.79769313e+307  0.00000000e+00   1.79769313e+307  0.00000000e+00   1.79769313e+307  0.00000000e+00   1.79769313e+307  0.00000000e+00   1.79769313e+307  
60.61           0.00000000e+00   1.79769313e+307  0.00000000e+00   1.79769313e+307  0.00000000e+00   1.79769313e+307  0.00000000e+00   1.79769313e+307  0.00000000e+00   1.79769313e+307  
60.62           0.00000000e+00   1.79769313e+307  0.00000000e+00   1.79769313e+307  0.00000000e+00   1.79769313e+307  0.00000000e+00   1.79769313e+307  0.00000000e+00   1.79769313e+307  
60.63           0.00000000e+00   1.79769313e+307  0.00000000e+00   1.79769313e+307  0.00000000e+00   1.79769313e+307  0.00000000e+00   1.79769313e+307  0.00000000e+00   1.79769313e+307  
60.64           0.00000000e+00   1.79769313e+307  0.00000000e+00   1.79769313e+307  0.00000000e+00   1.79769313e+307  0.00000000e+00   1.79769313e+307  0.00000000e+00   1.79769313e+307  
60.65           0.00000000e+00   1.79769313e+307  0.00000000e+00   1.79769313e+307  0.00000000e+00   1.79769313e+307  0.00000000e+00   1.79769313e+307  0.00000000e+00   1.79769313e+307  
60.66           0.00000000e+00   1.79769313e+307  0.00000000e+00   1.79769313e+307  0.00000000e+00   1.79769313e+307  0.00000000e+00   1.79769313e+307  0.00000000e+00   1.79769313e+307  
60.67           0.00000000e+00   1.79769313e+307  0.00000000e+00   1.79769313e+307  0.00000000e+00   1.79769313e+307  0.00000000e+00   1.79769313e+307  0.00000000e+00   1.79769313e+307  
60.68           0.00000000e+00   1.79769313e+307  0.00000000e+00   1.79769313e+307  0.00000000e+00   1.79769313e+307  0.00000000e+00   1.79769313e+307  0.00000000e+00   1.79769313e+307  
60.69           0.00000000e+00   1.79769313e+307  0.00000000e+00   1.79769313e+307  0.00000000e+00   1.79769313e+307  0.00000000e+00   1.79769313e+307  0.00000000e+00   1.79769313e+307  
60.7            0.00000000e+00   1.79769313e+307  0.00000000e+00   1.79769313e+307  0.00000000e+00   1.79769313e+307  0.00000000e+00   1.79769313e+307  0.00000000e+00   1.79769313e+307  
60.71           0.00000000e+00   1.79769313e+307  0.00000000e+00   1.79769313e+307  0.00000000e+00   1.79769313e+307  0.00000000e+00   1.79769313e+307  0.00000000e+00   1.79769313e+307  
60.72           0.00000000e+00   1.79769313e+307  0.00000000e+00   1.79769313e+307  0.00000000e+00   1.79769313e+307  0.00000000e+00   1.79769313e+307  0.00000000e+00   1.79769313e+307  
60.73           0.00000000e+00   1.79769313e+307  0.00000000e+00   1.79769313e+307  0.00000000e+00   1.79769313e+307  0.00000000e+00   1.79769313e+307  0.00000000e+00   1.79769313e+307  
60.74           0.00000000e+00   1.79769313e+307  0.00000000e+00   1.79769313e+307  0.00000000e+00   1.79769313e+307  0.00000000e+00   1.79769313e+307  0.00000000e+00   1.79769313e+307  
60.75           0.00000000e+00   1.79769313e+307  0.00000000e+00   1.79769313e+307  0.00000000e+00   1.79769313e+307  0.00000000e+00   1.79769313e+307  0.00000000e+00   1.79769313e+307  
60.76           0.00000000e+00   1.79769313e+307  0.00000000e+00   1.79769313e+307  0.00000000e+00   1.79769313e+307  0.00000000e+00   1.79769313e+307  0.00000000e+00   1.79769313e+307  
60.77           0.00000000e+00   1.79769313e+307  0.00000000e+00   1.79769313e+307  0.00000000e+00   1.79769313e+307  0.00000000e+00   1.79769313e+307  0.00000000e+00   1.79769313e+307  
60.78           0.00000000e+00   1.79769313e+307  0.00000000e+00   1.79769313e+307  0.00000000e+00   1.79769313e+307  0.00000000e+00   1.79769313e+307  0.00000000e+00   1.79769313e+307  
60.79           0.00000000e+00   1.79769313e+307  0.00000000e+00   1.79769313e+307  0.00000000e+00   1.79769313e+307  0.00000000e+00   1.79769313e+307  0.00000000e+00   1.79769313e+307  
60.8            0.00000000e+00   1.79769313e+307  0.00000000e+00   1.79769313e+307  0.00000000e+00   1.79769313e+307  0.00000000e+00   1.79769313e+307  0.00000000e+00   1.79769313e+307  
60.81           0.00000000e+00   1.79769313e+307  0.00000000e+00   1.79769313e+307  0.00000000e+00   1.79769313e+307  0.00000000e+00   1.79769313e+307  0.00000000e+00   1.79769313e+307  
60.82           0.00000000e+00   1.79769313e+307  0.00000000e+00   1.79769313e+307  0.00000000e+00   1.79769313e+307  0.00000000e+00   1.79769313e+307  0.00000000e+00   1.79769313e+307  
60.83           0.00000000e+00   1.79769313e+307  0.00000000e+00   1.79769313e+307  0.00000000e+00   1.79769313e+307  0.00000000e+00   1.79769313e+307  0.00000000e+00   1.79769313e+307  
60.84           0.00000000e+00   1.79769313e+307  0.00000000e+00   1.79769313e+307  0.00000000e+00   1.79769313e+307  0.00000000e+00   1.79769313e+307  0.00000000e+00   1.79769313e+307  
60.85           0.00000000e+00   1.79769313e+307  0.00000000e+00   1.79769313e+307  0.00000000e+00   1.79769313e+307  0.00000000e+00   1.79769313e+307  0.00000000e+00   1.79769313e+307  
60.86           0.00000000e+00   1.79769313e+307  0.00000000e+00   1.79769313e+307  0.00000000e+00   1.79769313e+307  0.00000000e+00   1.79769313e+307  0.00000000e+00   1.79769313e+307  
60.87           0.00000000e+00   1.79769313e+307  0.00000000e+00   1.79769313e+307  0.00000000e+00   1.79769313e+307  0.00000000e+00   1.79769313e+307  0.00000000e+00   1.79769313e+307  
60.88           0.00000000e+00   1.79769313e+307  0.00000000e+00   1.79769313e+307  0.00000000e+00   1.79769313e+307  0.00000000e+00   1.79769313e+307  0.00000000e+00   1.79769313e+307  
60.89           0.00000000e+00   1.79769313e+307  0.00000000e+00   1.79769313e+307  0.00000000e+00   1.79769313e+307  0.00000000e+00   1.79769313e+307  0.00000000e+00   1.79769313e+307  
60.9            0.00000000e+00   1.79769313e+307  0.00000000e+00   1.79769313e+307  0.00000000e+00   1.79769313e+307  0.00000000e+00   1.79769313e+307  0.00000000e+00   1.79769313e+307  
60.91           0.00000000e+00   1.79769313e+307  0.00000000e+00   1.79769313e+307  0.00000000e+00   1.79769313e+307  0.00000000e+00   1.79769313e+307  0.00000000e+00   1.79769313e+307  
60.92           0.00000000e+00   1.79769313e+307  0.00000000e+00   1.79769313e+307  0.00000000e+00   1.79769313e+307  0.00000000e+00   1.79769313e+307  0.00000000e+00   1.79769313e+307  
60.93           0.00000000e+00   1.79769313e+307  0.00000000e+00   1.79769313e+307  0.00000000e+00   1.79769313e+307  0.00000000e+00   1.79769313e+307  0.00000000e+00   1.79769313e+307  
60.94           0.00000000e+00   1.79769313e+307  0.00000000e+00   1.79769313e+307  0.00000000e+00   1.79769313e+307  0.00000000e+00   1.79769313e+307  0.00000000e+00   1.79769313e+307  
60.95           0.00000000e+00   1.79769313e+307  0.00000000e+00   1.79769313e+307  0.00000000e+00   1.79769313e+307  0.00000000e+00   1.79769313e+307  0.00000000e+00   1.79769313e+307  
60.96           0.00000000e+00   1.79769313e+307  0.00000000e+00   1.79769313e+307  0.00000000e+00   1.79769313e+307  0.00000000e+00   1.79769313e+307  0.00000000e+00   1.79769313e+307  
60.97           0.00000000e+00   1.79769313e+307  0.00000000e+00   1.79769313e+307  0.00000000e+00   1.79769313e+307  0.00000000e+00   1.79769313e+307  0.00000000e+00   1.79769313e+307  
60.98           0.00000000e+00   1.79769313e+307  0.00000000e+00   1.79769313e+307  0.00000000e+00   1.79769313e+307  0.00000000e+00   1.79769313e+307  0.00000000e+00   1.79769313e+307  
60.99           0.00000000e+00   1.79769313e+307  0.00000000e+00   1.79769313e+307  0.00000000e+00   1.79769313e+307  0.00000000e+00   1.79769313e+307  0.00000000e+00   1.79769313e+307  
61              0.00000000e+00   1.79769313e+307  0.00000000e+00   1.79769313e+307  0.00000000e+00   1.79769313e+307  0.00000000e+00   1.79769313e+307  0.00000000e+00   1.79769313e+307  
61.01           0.00000000e+00   1.79769313e+307  0.00000000e+00   1.79769313e+307  0.00000000e+00   1.79769313e+307  0.00000000e+00   1.79769313e+307  0.00000000e+00   1.79769313e+307  
61.02           0.00000000e+00   1.79769313e+307  0.00000000e+00   1.79769313e+307  0.00000000e+00   1.79769313e+307  0.00000000e+00   1.79769313e+307  0.00000000e+00   1.79769313e+307  
61.03           0.00000000e+00   1.79769313e+307  0.00000000e+00   1.79769313e+307  0.00000000e+00   1.79769313e+307  0.00000000e+00   1.79769313e+307  0.00000000e+00   1.79769313e+307  
61.04           0.00000000e+00   1.79769313e+307  0.00000000e+00   1.79769313e+307  0.00000000e+00   1.79769313e+307  0.00000000e+00   1.79769313e+307  0.00000000e+00   1.79769313e+307  
61.05           0.00000000e+00   1.79769313e+307  0.00000000e+00   1.79769313e+307  0.00000000e+00   1.79769313e+307  0.00000000e+00   1.79769313e+307  0.00000000e+00   1.79769313e+307  
61.06           0.00000000e+00   1.79769313e+307  0.00000000e+00   1.79769313e+307  0.00000000e+00   1.79769313e+307  0.00000000e+00   1.79769313e+307  0.00000000e+00   1.79769313e+307  
61.07           0.00000000e+00   1.79769313e+307  0.00000000e+00   1.79769313e+307  0.00000000e+00   1.79769313e+307  0.00000000e+00   1.79769313e+307  0.00000000e+00   1.79769313e+307  
61.08           0.00000000e+00   1.79769313e+307  0.00000000e+00   1.79769313e+307  0.00000000e+00   1.79769313e+307  0.00000000e+00   1.79769313e+307  0.00000000e+00   1.79769313e+307  
61.09           0.00000000e+00   1.79769313e+307  0.00000000e+00   1.79769313e+307  0.00000000e+00   1.79769313e+307  0.00000000e+00   1.79769313e+307  0.00000000e+00   1.79769313e+307  
61.1            0.00000000e+00   1.79769313e+307  0.00000000e+00   1.79769313e+307  0.00000000e+00   1.79769313e+307  0.00000000e+00   1.79769313e+307  0.00000000e+00   1.79769313e+307  
61.11           0.00000000e+00   1.79769313e+307  0.00000000e+00   1.79769313e+307  0.00000000e+00   1.79769313e+307  0.00000000e+00   1.79769313e+307  0.00000000e+00   1.79769313e+307  
61.12           0.00000000e+00   1.79769313e+307  0.00000000e+00   1.79769313e+307  0.00000000e+00   1.79769313e+307  0.00000000e+00   1.79769313e+307  0.00000000e+00   1.79769313e+307  
61.13           0.00000000e+00   1.79769313e+307  0.00000000e+00   1.79769313e+307  0.00000000e+00   1.79769313e+307  0.00000000e+00   1.79769313e+307  0.00000000e+00   1.79769313e+307  
61.14           0.00000000e+00   1.79769313e+307  0.00000000e+00   1.79769313e+307  0.00000000e+00   1.79769313e+307  0.00000000e+00   1.79769313e+307  0.00000000e+00   1.79769313e+307  
61.15           0.00000000e+00   1.79769313e+307  0.00000000e+00   1.79769313e+307  0.00000000e+00   1.79769313e+307  0.00000000e+00   1.79769313e+307  0.00000000e+00   1.79769313e+307  
61.16           0.00000000e+00   1.79769313e+307  0.00000000e+00   1.79769313e+307  0.00000000e+00   1.79769313e+307  0.00000000e+00   1.79769313e+307  0.00000000e+00   1.79769313e+307  
61.17           0.00000000e+00   1.79769313e+307  0.00000000e+00   1.79769313e+307  0.00000000e+00   1.79769313e+307  0.00000000e+00   1.79769313e+307  0.00000000e+00   1.79769313e+307  
61.18           0.00000000e+00   1.79769313e+307  0.00000000e+00   1.79769313e+307  0.00000000e+00   1.79769313e+307  0.00000000e+00   1.79769313e+307  0.00000000e+00   1.79769313e+307  
61.19           0.00000000e+00   1.79769313e+307  0.00000000e+00   1.79769313e+307  0.00000000e+00   1.79769313e+307  0.00000000e+00   1.79769313e+307  0.00000000e+00   1.79769313e+307  
61.2            0.00000000e+00   1.79769313e+307  0.00000000e+00   1.79769313e+307  0.00000000e+00   1.79769313e+307  0.00000000e+00   1.79769313e+307  0.00000000e+00   1.79769313e+307  
61.21           0.00000000e+00   1.79769313e+307  0.00000000e+00   1.79769313e+307  0.00000000e+00   1.79769313e+307  0.00000000e+00   1.79769313e+307  0.00000000e+00   1.79769313e+307  
61.22           0.00000000e+00   1.79769313e+307  0.00000000e+00   1.79769313e+307  0.00000000e+00   1.79769313e+307  0.00000000e+00   1.79769313e+307  0.00000000e+00   1.79769313e+307  
61.23           0.00000000e+00   1.79769313e+307  0.00000000e+00   1.79769313e+307  0.00000000e+00   1.79769313e+307  0.00000000e+00   1.79769313e+307  0.00000000e+00   1.79769313e+307  
61.24           0.00000000e+00   1.79769313e+307  0.00000000e+00   1.79769313e+307  0.00000000e+00   1.79769313e+307  0.00000000e+00   1.79769313e+307  0.00000000e+00   1.79769313e+307  
61.25           0.00000000e+00   1.79769313e+307  0.00000000e+00   1.79769313e+307  0.00000000e+00   1.79769313e+307  0.00000000e+00   1.79769313e+307  0.00000000e+00   1.79769313e+307  
61.26           0.00000000e+00   1.79769313e+307  0.00000000e+00   1.79769313e+307  0.00000000e+00   1.79769313e+307  0.00000000e+00   1.79769313e+307  0.00000000e+00   1.79769313e+307  
61.27           0.00000000e+00   1.79769313e+307  0.00000000e+00   1.79769313e+307  0.00000000e+00   1.79769313e+307  0.00000000e+00   1.79769313e+307  0.00000000e+00   1.79769313e+307  
61.28           0.00000000e+00   1.79769313e+307  0.00000000e+00   1.79769313e+307  0.00000000e+00   1.79769313e+307  0.00000000e+00   1.79769313e+307  0.00000000e+00   1.79769313e+307  
61.29           0.00000000e+00   1.79769313e+307  0.00000000e+00   1.79769313e+307  0.00000000e+00   1.79769313e+307  0.00000000e+00   1.79769313e+307  0.00000000e+00   1.79769313e+307  
61.3            0.00000000e+00   1.79769313e+307  0.00000000e+00   1.79769313e+307  0.00000000e+00   1.79769313e+307  0.00000000e+00   1.79769313e+307  0.00000000e+00   1.79769313e+307  
61.31           0.00000000e+00   1.79769313e+307  0.00000000e+00   1.79769313e+307  0.00000000e+00   1.79769313e+307  0.00000000e+00   1.79769313e+307  0.00000000e+00   1.79769313e+307  
61.32           0.00000000e+00   1.79769313e+307  0.00000000e+00   1.79769313e+307  0.00000000e+00   1.79769313e+307  0.00000000e+00   1.79769313e+307  0.00000000e+00   1.79769313e+307  
61.33           0.00000000e+00   1.79769313e+307  0.00000000e+00   1.79769313e+307  0.00000000e+00   1.79769313e+307  0.00000000e+00   1.79769313e+307  0.00000000e+00   1.79769313e+307  
61.34           0.00000000e+00   1.79769313e+307  0.00000000e+00   1.79769313e+307  0.00000000e+00   1.79769313e+307  0.00000000e+00   1.79769313e+307  0.00000000e+00   1.79769313e+307  
61.35           0.00000000e+00   1.79769313e+307  0.00000000e+00   1.79769313e+307  0.00000000e+00   1.79769313e+307  0.00000000e+00   1.79769313e+307  0.00000000e+00   1.79769313e+307  
61.36           0.00000000e+00   1.79769313e+307  0.00000000e+00   1.79769313e+307  0.00000000e+00   1.79769313e+307  0.00000000e+00   1.79769313e+307  0.00000000e+00   1.79769313e+307  
61.37           0.00000000e+00   1.79769313e+307  0.00000000e+00   1.79769313e+307  0.00000000e+00   1.79769313e+307  0.00000000e+00   1.79769313e+307  0.00000000e+00   1.79769313e+307  
61.38           0.00000000e+00   1.79769313e+307  0.00000000e+00   1.79769313e+307  0.00000000e+00   1.79769313e+307  0.00000000e+00   1.79769313e+307  0.00000000e+00   1.79769313e+307  
61.39           0.00000000e+00   1.79769313e+307  0.00000000e+00   1.79769313e+307  0.00000000e+00   1.79769313e+307  0.00000000e+00   1.79769313e+307  0.00000000e+00   1.79769313e+307  
61.4            0.00000000e+00   1.79769313e+307  0.00000000e+00   1.79769313e+307  0.00000000e+00   1.79769313e+307  0.00000000e+00   1.79769313e+307  0.00000000e+00   1.79769313e+307  
61.41           0.00000000e+00   1.79769313e+307  0.00000000e+00   1.79769313e+307  0.00000000e+00   1.79769313e+307  0.00000000e+00   1.79769313e+307  0.00000000e+00   1.79769313e+307  
61.42           0.00000000e+00   1.79769313e+307  0.00000000e+00   1.79769313e+307  0.00000000e+00   1.79769313e+307  0.00000000e+00   1.79769313e+307  0.00000000e+00   1.79769313e+307  
61.43           0.00000000e+00   1.79769313e+307  0.00000000e+00   1.79769313e+307  0.00000000e+00   1.79769313e+307  0.00000000e+00   1.79769313e+307  0.00000000e+00   1.79769313e+307  
61.44           0.00000000e+00   1.79769313e+307  0.00000000e+00   1.79769313e+307  0.00000000e+00   1.79769313e+307  0.00000000e+00   1.79769313e+307  0.00000000e+00   1.79769313e+307  
61.45           0.00000000e+00   1.79769313e+307  0.00000000e+00   1.79769313e+307  0.00000000e+00   1.79769313e+307  0.00000000e+00   1.79769313e+307  0.00000000e+00   1.79769313e+307  
61.46           0.00000000e+00   1.79769313e+307  0.00000000e+00   1.79769313e+307  0.00000000e+00   1.79769313e+307  0.00000000e+00   1.79769313e+307  0.00000000e+00   1.79769313e+307  
61.47           0.00000000e+00   1.79769313e+307  0.00000000e+00   1.79769313e+307  0.00000000e+00   1.79769313e+307  0.00000000e+00   1.79769313e+307  0.00000000e+00   1.79769313e+307  
61.48           0.00000000e+00   1.79769313e+307  0.00000000e+00   1.79769313e+307  0.00000000e+00   1.79769313e+307  0.00000000e+00   1.79769313e+307  0.00000000e+00   1.79769313e+307  
61.49           0.00000000e+00   1.79769313e+307  0.00000000e+00   1.79769313e+307  0.00000000e+00   1.79769313e+307  0.00000000e+00   1.79769313e+307  0.00000000e+00   1.79769313e+307  
61.5            0.00000000e+00   1.79769313e+307  0.00000000e+00   1.79769313e+307  0.00000000e+00   1.79769313e+307  0.00000000e+00   1.79769313e+307  0.00000000e+00   1.79769313e+307  
61.51           0.00000000e+00   1.79769313e+307  0.00000000e+00   1.79769313e+307  0.00000000e+00   1.79769313e+307  0.00000000e+00   1.79769313e+307  0.00000000e+00   1.79769313e+307  
61.52           0.00000000e+00   1.79769313e+307  0.00000000e+00   1.79769313e+307  0.00000000e+00   1.79769313e+307  0.00000000e+00   1.79769313e+307  0.00000000e+00   1.79769313e+307  
61.53           0.00000000e+00   1.79769313e+307  0.00000000e+00   1.79769313e+307  0.00000000e+00   1.79769313e+307  0.00000000e+00   1.79769313e+307  0.00000000e+00   1.79769313e+307  
61.54           0.00000000e+00   1.79769313e+307  0.00000000e+00   1.79769313e+307  0.00000000e+00   1.79769313e+307  0.00000000e+00   1.79769313e+307  0.00000000e+00   1.79769313e+307  
61.55           0.00000000e+00   1.79769313e+307  0.00000000e+00   1.79769313e+307  0.00000000e+00   1.79769313e+307  0.00000000e+00   1.79769313e+307  0.00000000e+00   1.79769313e+307  