/*--------------------------------*- C++ -*----------------------------------*\
  =========                 |
  \\      /  F ield         | OpenFOAM: The Open Source CFD Toolbox
   \\    /   O peration     | Website:  https://openfoam.org
    \\  /    A nd           | Version:  8
     \\/     M anipulation  |
\*---------------------------------------------------------------------------*/
/*   Windows 32 and 64 bit porting by blueCAPE: http://www.bluecape.com.pt   *\
|  Based on Windows porting (2.0.x v4) by Symscape: http://www.symscape.com   |
\*---------------------------------------------------------------------------*/
FoamFile
{
    version     2.0;
    format      ascii;
    class       volScalarField;
    location    "60";
    object      epsilon;
}
// * * * * * * * * * * * * * * * * * * * * * * * * * * * * * * * * * * * * * //

dimensions      [0 2 -3 0 0 0 0];

internalField   nonuniform List<scalar> 
283500
(
4.4332398e-05
4.4149188e-05
4.4094846e-05
4.4083527e-05
4.4075774e-05
4.4070096e-05
4.4065732e-05
4.4062404e-05
4.4059941e-05
4.4058161e-05
4.4056918e-05
4.40561e-05
4.4055601e-05
4.4055288e-05
4.4055114e-05
4.4055114e-05
4.4055288e-05
4.4055601e-05
4.40561e-05
4.4056918e-05
4.4058161e-05
4.4059941e-05
4.4062404e-05
4.4065732e-05
4.4070096e-05
4.4075774e-05
4.4083527e-05
4.4094846e-05
4.4149188e-05
4.4332398e-05
4.5208578e-05
4.467732e-05
4.4526384e-05
4.4494465e-05
4.4473417e-05
4.4458073e-05
4.444631e-05
4.4437347e-05
4.4430705e-05
4.4425898e-05
4.4422537e-05
4.4420322e-05
4.4418974e-05
4.4418129e-05
4.4417659e-05
4.4417659e-05
4.4418129e-05
4.4418974e-05
4.4420322e-05
4.4422537e-05
4.4425898e-05
4.4430705e-05
4.4437347e-05
4.444631e-05
4.4458073e-05
4.4473417e-05
4.4494465e-05
4.4526384e-05
4.467732e-05
4.5208578e-05
4.6538585e-05
4.5469775e-05
4.5180916e-05
4.5119301e-05
4.5080008e-05
4.5051591e-05
4.5029967e-05
4.501357e-05
4.5001418e-05
4.4992621e-05
4.4986466e-05
4.4982409e-05
4.4979939e-05
4.4978393e-05
4.4977536e-05
4.4977536e-05
4.4978393e-05
4.4979939e-05
4.4982409e-05
4.4986466e-05
4.4992621e-05
4.5001418e-05
4.501357e-05
4.5029967e-05
4.5051591e-05
4.5080008e-05
4.5119301e-05
4.5180916e-05
4.5469775e-05
4.6538586e-05
4.8304389e-05
4.6519802e-05
4.6050492e-05
4.5949904e-05
4.5887866e-05
4.5843379e-05
4.5809712e-05
4.5784259e-05
4.5765416e-05
4.5751807e-05
4.5742284e-05
4.5736005e-05
4.5732182e-05
4.5729793e-05
4.5728471e-05
4.5728471e-05
4.5729793e-05
4.5732182e-05
4.5736005e-05
4.5742284e-05
4.5751807e-05
4.5765416e-05
4.5784259e-05
4.5809712e-05
4.5843379e-05
4.5887866e-05
4.5949904e-05
4.6050492e-05
4.6519802e-05
4.8304389e-05
5.0476461e-05
4.7821025e-05
4.7128645e-05
4.6980281e-05
4.6891096e-05
4.6827744e-05
4.6780081e-05
4.6744184e-05
4.6717638e-05
4.6698459e-05
4.6685037e-05
4.6676195e-05
4.6670817e-05
4.6667461e-05
4.6665608e-05
4.6665608e-05
4.6667461e-05
4.6670817e-05
4.6676195e-05
4.6685037e-05
4.6698459e-05
4.6717638e-05
4.6744184e-05
4.6780081e-05
4.6827744e-05
4.6891096e-05
4.6980281e-05
4.7128645e-05
4.7821025e-05
5.0476461e-05
5.3021918e-05
4.9365083e-05
4.8407573e-05
4.8203032e-05
4.8082671e-05
4.7998136e-05
4.7934931e-05
4.7887558e-05
4.7852579e-05
4.7827322e-05
4.7809653e-05
4.7798012e-05
4.7790932e-05
4.778652e-05
4.7784086e-05
4.7784086e-05
4.778652e-05
4.7790932e-05
4.7798012e-05
4.7809653e-05
4.7827322e-05
4.7852579e-05
4.7887558e-05
4.7934931e-05
4.7998136e-05
4.8082671e-05
4.8203032e-05
4.8407573e-05
4.9365083e-05
5.3021919e-05
5.5910619e-05
5.1142809e-05
4.987918e-05
4.9610077e-05
4.9454898e-05
4.9347288e-05
4.9267354e-05
4.9207783e-05
4.9163895e-05
4.9132243e-05
4.9110118e-05
4.9095554e-05
4.9086707e-05
4.9081199e-05
4.9078162e-05
4.9078162e-05
4.9081199e-05
4.9086707e-05
4.9095554e-05
4.9110118e-05
4.9132243e-05
4.9163895e-05
4.9207783e-05
4.9267354e-05
4.9347288e-05
4.9454898e-05
4.9610077e-05
4.987918e-05
5.1142809e-05
5.5910621e-05
5.9117508e-05
5.3145371e-05
5.1535777e-05
5.1193438e-05
5.1000112e-05
5.0867896e-05
5.0770346e-05
5.0698121e-05
5.0645056e-05
5.0606858e-05
5.0580191e-05
5.0562666e-05
5.055204e-05
5.0545435e-05
5.0541789e-05
5.0541789e-05
5.0545435e-05
5.055204e-05
5.0562666e-05
5.0580191e-05
5.0606858e-05
5.0645056e-05
5.0698121e-05
5.0770346e-05
5.0867896e-05
5.1000112e-05
5.1193438e-05
5.1535777e-05
5.3145372e-05
5.9117509e-05
6.2623589e-05
5.5365074e-05
5.3370591e-05
5.2945835e-05
5.2711178e-05
5.2553082e-05
5.2437272e-05
5.2352157e-05
5.2289832e-05
5.2245078e-05
5.2213889e-05
5.2193436e-05
5.2181074e-05
5.2173399e-05
5.2169153e-05
5.2169153e-05
5.2173399e-05
5.2181074e-05
5.2193436e-05
5.2213889e-05
5.2245078e-05
5.2289832e-05
5.2352157e-05
5.2437272e-05
5.2553082e-05
5.2711178e-05
5.2945835e-05
5.3370591e-05
5.5365074e-05
6.2623592e-05
6.6416455e-05
5.7795913e-05
5.5378158e-05
5.4861135e-05
5.458197e-05
5.4396881e-05
5.426235e-05
5.4164287e-05
5.4092765e-05
5.4041567e-05
5.4005966e-05
5.3982685e-05
5.3968669e-05
5.395998e-05
5.395516e-05
5.395516e-05
5.395998e-05
5.3968669e-05
5.3982685e-05
5.4005966e-05
5.4041567e-05
5.4092765e-05
5.4164287e-05
5.426235e-05
5.4396881e-05
5.458197e-05
5.4861136e-05
5.5378158e-05
5.7795913e-05
6.6416458e-05
7.0490462e-05
6.0434001e-05
5.7554582e-05
5.693466e-05
5.6607697e-05
5.6394571e-05
5.6240982e-05
5.6130054e-05
5.6049525e-05
5.5992102e-05
5.5952281e-05
5.592633e-05
5.5910785e-05
5.5901164e-05
5.5895804e-05
5.5895804e-05
5.5901164e-05
5.5910785e-05
5.592633e-05
5.5952281e-05
5.5992102e-05
5.6049525e-05
5.6130054e-05
5.6240982e-05
5.6394571e-05
5.6607697e-05
5.693466e-05
5.7554582e-05
6.0434001e-05
7.0490466e-05
7.4846858e-05
6.3277772e-05
5.9897703e-05
5.9163363e-05
5.8785099e-05
5.8542874e-05
5.8369959e-05
5.8246354e-05
5.8157116e-05
5.809378e-05
5.8050011e-05
5.8021607e-05
5.8004702e-05
5.7994255e-05
5.7988405e-05
5.7988405e-05
5.7994255e-05
5.8004702e-05
5.8021607e-05
5.8050011e-05
5.809378e-05
5.8157116e-05
5.8246354e-05
5.8369959e-05
5.8542874e-05
5.8785099e-05
5.9163363e-05
5.9897703e-05
6.3277772e-05
7.4846862e-05
7.9493888e-05
6.6328161e-05
6.2407184e-05
6.1545925e-05
6.1112564e-05
6.0840072e-05
6.0647578e-05
6.0511552e-05
6.0413992e-05
6.0345148e-05
6.0297776e-05
6.0267198e-05
6.0249143e-05
6.0238008e-05
6.023173e-05
6.023173e-05
6.0238008e-05
6.0249143e-05
6.0267198e-05
6.0297776e-05
6.0345148e-05
6.0413992e-05
6.0511552e-05
6.0647578e-05
6.0840072e-05
6.1112564e-05
6.1545925e-05
6.2407184e-05
6.6328161e-05
7.9493892e-05
8.4446936e-05
6.9588801e-05
6.5084488e-05
6.4082771e-05
6.3590163e-05
6.3286066e-05
6.3073697e-05
6.2925537e-05
6.2820109e-05
6.2746242e-05
6.2695689e-05
6.2663276e-05
6.2644332e-05
6.2632678e-05
6.262605e-05
6.262605e-05
6.2632678e-05
6.2644332e-05
6.2663276e-05
6.2695689e-05
6.2746242e-05
6.2820109e-05
6.2925537e-05
6.3073697e-05
6.3286066e-05
6.3590163e-05
6.4082771e-05
6.5084488e-05
6.9588802e-05
8.4446942e-05
8.9728968e-05
7.3066152e-05
6.7932864e-05
6.6776041e-05
6.6219645e-05
6.5882381e-05
6.5649755e-05
6.5489741e-05
6.5376947e-05
6.5298613e-05
6.5245374e-05
6.5211531e-05
6.519201e-05
6.5180041e-05
6.5173157e-05
6.5173157e-05
6.5180041e-05
6.519201e-05
6.5211531e-05
6.5245374e-05
6.5298613e-05
6.5376947e-05
6.5489741e-05
6.5649755e-05
6.5882381e-05
6.6219645e-05
6.6776041e-05
6.7932865e-05
7.3066152e-05
8.9728975e-05
9.5370599e-05
7.676959e-05
7.0957436e-05
6.9629577e-05
6.9004436e-05
6.8632175e-05
6.8378783e-05
6.8207158e-05
6.8087522e-05
6.8005336e-05
6.7949975e-05
6.7915174e-05
6.7895443e-05
6.7883405e-05
6.7876377e-05
6.7876377e-05
6.7883405e-05
6.7895443e-05
6.7915174e-05
6.7949975e-05
6.8005336e-05
6.8087522e-05
6.8207158e-05
6.8378783e-05
6.8632175e-05
6.9004436e-05
6.9629577e-05
7.0957436e-05
7.6769591e-05
9.5370607e-05
0.00010140909
8.0711476e-05
7.4165219e-05
7.2648904e-05
7.1949617e-05
7.1540234e-05
7.1265415e-05
7.1082358e-05
7.0956401e-05
7.0871019e-05
7.0814165e-05
7.0778944e-05
7.0759429e-05
7.0747607e-05
7.0740569e-05
7.0740569e-05
7.0747607e-05
7.0759429e-05
7.0778944e-05
7.0814165e-05
7.0871019e-05
7.0956401e-05
7.1082358e-05
7.1265415e-05
7.1540234e-05
7.1949617e-05
7.2648904e-05
7.4165219e-05
8.0711476e-05
0.0001014091
0.00010788699
8.4907187e-05
7.7565174e-05
7.5841231e-05
7.5061913e-05
7.4613004e-05
7.4315921e-05
7.4121507e-05
7.3989725e-05
7.3901828e-05
7.3844161e-05
7.380912e-05
7.3790304e-05
7.3779032e-05
7.3772136e-05
7.3772136e-05
7.3779032e-05
7.3790304e-05
7.380912e-05
7.3844161e-05
7.3901828e-05
7.3989725e-05
7.4121507e-05
7.4315921e-05
7.4613004e-05
7.5061913e-05
7.5841231e-05
7.7565174e-05
8.4907188e-05
0.000107887
0.00011485086
8.9375192e-05
8.1168304e-05
7.9215517e-05
7.8349727e-05
7.7858619e-05
7.7538254e-05
7.7332423e-05
7.7195262e-05
7.7105539e-05
7.7047778e-05
7.7013573e-05
7.6995996e-05
7.6985653e-05
7.6979073e-05
7.6979073e-05
7.6985653e-05
7.6995996e-05
7.7013572e-05
7.7047778e-05
7.7105539e-05
7.7195262e-05
7.7332423e-05
7.7538254e-05
7.7858619e-05
7.8349727e-05
7.9215517e-05
8.1168304e-05
8.9375193e-05
0.00011485087
0.00012235032
9.4137118e-05
8.4987784e-05
8.2782561e-05
8.1823215e-05
8.1286947e-05
8.0942112e-05
8.0724647e-05
8.058248e-05
8.0491609e-05
8.0434498e-05
8.040183e-05
8.0386085e-05
8.0377093e-05
8.0371022e-05
8.0371022e-05
8.0377093e-05
8.0386085e-05
8.040183e-05
8.0434498e-05
8.0491609e-05
8.058248e-05
8.0724647e-05
8.0942112e-05
8.1286947e-05
8.1823215e-05
8.2782561e-05
8.4987785e-05
9.4137119e-05
0.00012235034
0.00013043756
9.9217856e-05
8.9039159e-05
8.655513e-05
8.549438e-05
8.4909672e-05
8.4539015e-05
8.4309541e-05
8.4162644e-05
8.4071275e-05
8.4015568e-05
8.3985169e-05
8.397189e-05
8.3964714e-05
8.3959364e-05
8.3959364e-05
8.3964714e-05
8.397189e-05
8.3985169e-05
8.4015568e-05
8.4071275e-05
8.4162644e-05
8.4309541e-05
8.4539015e-05
8.4909672e-05
8.549438e-05
8.655513e-05
8.9039159e-05
9.9217857e-05
0.00013043758
0.0001391674
0.00010464575
9.3340607e-05
9.0548152e-05
8.9377238e-05
8.8740444e-05
8.8342457e-05
8.8100449e-05
8.7948981e-05
8.7857704e-05
8.7804148e-05
8.7776773e-05
8.7766625e-05
8.7761765e-05
8.7757363e-05
8.7757363e-05
8.7761765e-05
8.7766625e-05
8.7776773e-05
8.7804148e-05
8.7857704e-05
8.7948981e-05
8.8100449e-05
8.8342457e-05
8.8740444e-05
8.9377238e-05
9.0548152e-05
9.3340607e-05
0.00010464575
0.00013916741
0.00014859778
0.00011045284
9.791325e-05
9.4778968e-05
9.3488023e-05
9.2795083e-05
9.236809e-05
9.2112876e-05
9.1956877e-05
9.1866194e-05
9.1815507e-05
9.1791912e-05
9.1785581e-05
9.1783562e-05
9.1780344e-05
9.1780344e-05
9.1783562e-05
9.1785581e-05
9.1791912e-05
9.1815507e-05
9.1866194e-05
9.1956877e-05
9.2112876e-05
9.236809e-05
9.2795083e-05
9.3488023e-05
9.4778968e-05
9.7913251e-05
0.00011045284
0.0001485978
0.00015879075
0.00011667517
0.00010278151
9.9267625e-05
9.7845441e-05
9.7091799e-05
9.6633942e-05
9.6364712e-05
9.6204103e-05
9.6114406e-05
9.6067252e-05
9.6048183e-05
9.6046353e-05
9.604772e-05
9.6045932e-05
9.6045932e-05
9.604772e-05
9.6046353e-05
9.6048183e-05
9.6067252e-05
9.6114406e-05
9.6204103e-05
9.6364712e-05
9.6633942e-05
9.7091799e-05
9.7845441e-05
9.9267625e-05
0.00010278151
0.00011667517
0.00015879077
0.00016981388
0.00012335325
0.00010797357
0.00010403727
0.000102471
0.0001016515
0.00010116071
0.00010087652
0.00010071111
0.00010062267
0.00010057963
0.00010056579
0.00010056914
0.00010057446
0.00010057436
0.00010057436
0.00010057446
0.00010056914
0.00010056579
0.00010057963
0.00010062267
0.00010071111
0.00010087652
0.00010116071
0.0001016515
0.000102471
0.00010403727
0.00010797357
0.00012335325
0.00016981391
0.00018174212
0.00013053235
0.00011352182
0.00010911457
0.00010738941
0.00010649816
0.00010597212
0.00010567185
0.00010550136
0.00010541433
0.00010537587
0.00010536791
0.00010537712
0.00010538696
0.00010538879
0.00010538879
0.00010538696
0.00010537712
0.00010536791
0.00010537587
0.00010541433
0.00010550136
0.00010567185
0.00010597212
0.00010649816
0.00010738941
0.00010911457
0.00011352182
0.00013053236
0.00018174215
0.0001946598
0.00013826297
0.00011946331
0.00011453019
0.00011262895
0.0001116592
0.00011109529
0.00011077768
0.00011060172
0.00011051615
0.00011048263
0.00011048109
0.00011049681
0.00011051175
0.00011051579
0.00011051579
0.00011051175
0.00011049681
0.00011048109
0.00011048263
0.00011051615
0.00011060172
0.00011077768
0.00011109529
0.0001116592
0.00011262895
0.00011453019
0.00011946331
0.00013826297
0.00019465983
0.00020866306
0.00014660111
0.0001258402
0.00012031914
0.0001182219
0.00011716588
0.00011656115
0.00011622474
0.00011604288
0.00011595873
0.00011593039
0.00011593572
0.00011595856
0.00011597918
0.00011598571
0.00011598571
0.00011597918
0.00011595856
0.00011593572
0.00011593039
0.00011595873
0.00011604288
0.00011622474
0.00011656115
0.00011716588
0.0001182219
0.00012031914
0.00012584021
0.00014660112
0.0002086631
0.00022386287
0.00015560848
0.00013270004
0.00012652118
0.00012420489
0.00012305362
0.00012240472
0.0001220479
0.0001218596
0.00012177679
0.00012175379
0.00012176633
0.00012179684
0.00012182375
0.00012183305
0.00012183305
0.00012182375
0.00012179684
0.00012176633
0.00012175379
0.00012177679
0.0001218596
0.0001220479
0.00012240472
0.00012305362
0.00012420489
0.00012652118
0.00013270004
0.00015560848
0.00022386291
0.00024038824
0.00016535295
0.00014009603
0.00013318113
0.00013061915
0.00012936233
0.0001286655
0.00012828646
0.00012809114
0.00012800953
0.00012799197
0.00012801196
0.00012805066
0.00012808443
0.00012809683
0.00012809683
0.00012808443
0.00012805066
0.00012801196
0.00012799197
0.00012800953
0.00012809114
0.00012828646
0.0001286655
0.00012936233
0.00013061915
0.00013318113
0.00014009603
0.00016535296
0.00024038829
0.00025838989
0.00017590929
0.00014808744
0.00014034906
0.00013751082
0.00013613662
0.00013538764
0.00013498444
0.00013478149
0.00013470089
0.00013468883
0.00013471646
0.00013476376
0.00013480499
0.00013482081
0.00013482081
0.00013480499
0.00013476376
0.00013471646
0.00013468883
0.00013470089
0.00013478149
0.00013498444
0.00013538764
0.00013613662
0.00013751082
0.00014034906
0.00014808744
0.00017590929
0.00025838995
0.00027804449
0.00018735995
0.00015673995
0.00014808066
0.00014493113
0.00014342601
0.0001426201
0.00014219067
0.00014197951
0.00014189974
0.00014189323
0.00014192862
0.00014198493
0.0001420342
0.00014205385
0.00014205385
0.0001420342
0.00014198493
0.00014192862
0.00014189323
0.00014189974
0.00014197951
0.00014219067
0.0001426201
0.00014342601
0.00014493113
0.00014808066
0.00015673996
0.00018735995
0.00027804454
0.00029955923
0.00019979585
0.00016612595
0.00015643738
0.00015293655
0.00015128503
0.00015041679
0.0001499589
0.00014973896
0.00014965988
0.00014965897
0.00014970222
0.0001497679
0.00014982585
0.00014984978
0.00014984978
0.00014982585
0.0001497679
0.00014970222
0.00014965897
0.00014965988
0.00014973896
0.0001499589
0.00015041679
0.00015128503
0.00015293655
0.00015643738
0.00016612595
0.00019979585
0.0002995593
0.00032317808
0.00021331779
0.00017632526
0.00016548693
0.00016158919
0.00015977354
0.00015883681
0.00015834802
0.00015811877
0.00015804027
0.00015804507
0.00015809627
0.00015817167
0.00015823902
0.00015826773
0.00015826773
0.00015823902
0.00015817167
0.00015809627
0.00015804507
0.00015804027
0.00015811877
0.00015834802
0.00015883681
0.00015977354
0.00016158919
0.00016548693
0.00017632526
0.00021331779
0.00032317816
0.0003491885
0.00022803789
0.00018742575
0.00017530363
0.00017095697
0.00016895689
0.00016794459
0.00016742225
0.00016718316
0.0001671052
0.00016711586
0.00016717514
0.00016726065
0.00016733822
0.00016737229
0.00016737229
0.00016733822
0.00016726065
0.00016717514
0.00016711586
0.0001671052
0.00016718316
0.00016742225
0.00016794459
0.00016895689
0.00017095697
0.00017530363
0.00018742575
0.0002280379
0.00034918859
0.00037792933
0.00024408132
0.00019952413
0.00018596882
0.00018111393
0.00017890612
0.00017781005
0.00017725115
0.00017700171
0.00017692437
0.00017694115
0.00017700867
0.00017710475
0.00017719349
0.00017723357
0.00017723357
0.00017719349
0.00017710475
0.00017700867
0.00017694115
0.00017692437
0.00017700171
0.00017725115
0.00017781005
0.00017890612
0.00018111393
0.00018596882
0.00019952413
0.00024408133
0.00037792943
0.00040980039
0.00026158892
0.00021272725
0.0001975717
0.00019214083
0.00018969855
0.00018850909
0.00018791021
0.00018764988
0.00018757333
0.00018759659
0.00018767262
0.00018777982
0.00018788078
0.00018792764
0.00018792764
0.00018788078
0.00018777982
0.00018767262
0.00018759659
0.00018757333
0.00018764988
0.00018791021
0.00018850909
0.00018969855
0.00019214083
0.0001975717
0.00021272726
0.00026158892
0.0004098005
0.00044527536
0.00028071978
0.00022715348
0.00021021012
0.00020412578
0.00020141812
0.00020012397
0.00019948119
0.00019920936
0.00019913381
0.00019916399
0.0001992489
0.00019936789
0.00019948229
0.00019953685
0.00019953685
0.00019948229
0.00019936789
0.0001992489
0.00019916399
0.0001991338
0.00019920936
0.00019948119
0.00020012397
0.00020141812
0.00020412578
0.00021021012
0.00022715348
0.00028071979
0.00044527549
0.00048491369
0.00030165471
0.00024293435
0.00022399157
0.00021716491
0.00021415601
0.00021274382
0.00021205253
0.0002117684
0.00021169407
0.00021173172
0.00021182599
0.0002119576
0.00021208684
0.00021215016
0.00021215016
0.00021208684
0.0002119576
0.00021182599
0.00021173172
0.00021169407
0.0002117684
0.00021205253
0.00021274382
0.00021415601
0.00021716491
0.00022399157
0.00024293435
0.00030165472
0.00048491382
0.00052937789
0.00032460092
0.00026021716
0.00023903476
0.00023136359
0.00022801169
0.00022646559
0.00022572027
0.00022542274
0.00022534986
0.0002253956
0.00022549984
0.00022564507
0.00022579075
0.0002258641
0.0002258641
0.00022579075
0.00022564507
0.00022549983
0.0002253956
0.00022534986
0.00022542274
0.00022572026
0.00022646559
0.00022801169
0.00023136359
0.00023903476
0.00026021716
0.00032460093
0.00052937804
0.00057945069
0.00034979688
0.00027916751
0.00025547131
0.00024683755
0.0002430939
0.00024139492
0.00024058885
0.00024027643
0.00024020517
0.00024025968
0.00024037462
0.00024053469
0.00024069863
0.00024078345
0.00024078345
0.00024069863
0.00024053469
0.00024037462
0.00024025968
0.00024020517
0.00024027642
0.00024058885
0.00024139492
0.0002430939
0.00024683755
0.00025547131
0.00027916751
0.00034979689
0.00057945086
0.00063605821
0.00037751785
0.00029997242
0.00027344774
0.00026371433
0.00025952174
0.00025764711
0.00025677207
0.00025644269
0.00025637314
0.00025643718
0.0002565637
0.00025674001
0.00025692431
0.00025702221
0.00025702221
0.00025692431
0.00025674001
0.0002565637
0.00025643718
0.00025637314
0.00025644269
0.00025677206
0.00025764711
0.00025952174
0.00026371433
0.00027344774
0.00029997242
0.00037751786
0.00063605841
0.00070029491
0.00040808357
0.00032284465
0.0002931283
0.00028213518
0.0002774261
0.00027534841
0.00027439431
0.00027404552
0.00027397767
0.00027405206
0.00027419122
0.0002743854
0.00027459235
0.00027470516
0.00027470516
0.00027459235
0.0002743854
0.00027419122
0.00027405206
0.00027397767
0.00027404552
0.00027439431
0.00027534841
0.0002774261
0.00028213518
0.0002931283
0.00032284466
0.00040808359
0.00070029514
0.00077345292
0.00044186732
0.00034802658
0.00031469755
0.00030225737
0.00029695211
0.00029463831
0.0002935927
0.00029322078
0.00029315475
0.00029324047
0.0002933935
0.00029360745
0.00029383958
0.00029396929
0.00029396929
0.00029383958
0.00029360745
0.0002933935
0.00029324047
0.00029315475
0.00029322078
0.0002935927
0.00029463831
0.00029695211
0.00030225737
0.00031469755
0.00034802658
0.00044186734
0.00077345318
0.00085705488
0.00047930782
0.00037579465
0.0003383634
0.00032425703
0.00031826103
0.0003156712
0.00031451868
0.00031411871
0.00031405389
0.00031415232
0.0003143207
0.00031455659
0.0003148167
0.00031496548
0.00031496548
0.0003148167
0.00031455659
0.0003143207
0.00031415232
0.00031405389
0.00031411871
0.00031451868
0.0003156712
0.00031826103
0.00032425703
0.0003383634
0.00037579465
0.00047930783
0.00085705518
0.00095289222
0.00052091806
0.00040646504
0.00036436203
0.00034833216
0.00034153298
0.00033861886
0.00033734037
0.00033690592
0.00033684123
0.00033695341
0.0003371392
0.00033739951
0.00033769071
0.00033786093
0.00033786093
0.00033769071
0.00033739951
0.00033713919
0.00033695341
0.00033684123
0.00033690591
0.00033734037
0.00033861886
0.00034153298
0.00034833215
0.00036436203
0.00040646504
0.00052091808
0.00095289256
0.0010630646
0.00056729833
0.00044040034
0.00039296199
0.00037470592
0.00036696973
0.00036367296
0.00036224495
0.00036176765
0.00036170141
0.00036182818
0.00036203375
0.00036232141
0.00036264714
0.00036284137
0.00036284137
0.00036264714
0.00036232141
0.00036203375
0.00036182818
0.00036170141
0.00036176765
0.00036224495
0.00036367296
0.00036696973
0.00037470592
0.00039296199
0.00044040034
0.00056729835
0.001063065
0.0011900213
0.00061915052
0.0004780164
0.00042446887
0.00040363037
0.00039479775
0.00039104781
0.00038944118
0.00038891028
0.00038883996
0.00038898203
0.00038920951
0.00038952827
0.0003898924
0.00039011334
0.00039011334
0.0003898924
0.00038952827
0.00038920951
0.00038898203
0.00038883996
0.00038891028
0.00038944118
0.00039104781
0.00039479775
0.00040363036
0.00042446887
0.00047801641
0.00061915054
0.0011900218
0.0013366091
0.00067729318
0.00051979034
0.00045923139
0.00043539126
0.00042527235
0.00042098409
0.00041916301
0.00041856481
0.00041848682
0.00041864468
0.00041889638
0.00041924985
0.00041965655
0.00041990725
0.00041990725
0.00041965655
0.00041924985
0.00041889638
0.00041864468
0.00041848682
0.0004185648
0.00041916301
0.00042098408
0.00042527235
0.00043539126
0.00045923139
0.00051979034
0.00067729321
0.0013366096
0.0015061214
0.0007426764
0.00056626809
0.00049764728
0.00047031281
0.00045868164
0.00045375236
0.00045167282
0.00045098995
0.00045089937
0.00045107322
0.00045135162
0.00045174379
0.00045219766
0.00045248139
0.00045248139
0.00045219766
0.00045174379
0.00045135162
0.00045107322
0.00045089937
0.00045098994
0.00045167282
0.00045375236
0.00045868164
0.00047031281
0.00049764728
0.00056626809
0.00074267644
0.001506122
0.0017023494
0.00081640102
0.00061807251
0.00054016958
0.00050876268
0.00049535074
0.00048965683
0.00048726489
0.0004864755
0.00048636565
0.00048655524
0.00048686298
0.00048729822
0.00048780428
0.00048812462
0.00048812462
0.00048780428
0.00048729822
0.00048686298
0.00048655524
0.00048636565
0.0004864755
0.00048726489
0.00048965682
0.00049535073
0.00050876268
0.00054016958
0.00061807251
0.00081640106
0.0017023501
0.0019296423
0.00089972409
0.0006759131
0.00058731408
0.00055115836
0.00053564736
0.00052904039
0.00052627023
0.00052534693
0.00052520881
0.00052541322
0.00052575308
0.0005262362
0.00052679989
0.0005271607
0.0005271607
0.00052679989
0.00052623619
0.00052575308
0.00052541322
0.0005252088
0.00052534693
0.00052627023
0.00052904039
0.00053564736
0.00055115836
0.00058731408
0.0006759131
0.00089972413
0.0019296431
0.0021929727
0.00099408051
0.00074059454
0.00063966576
0.0005979731
0.00057998699
0.00057228931
0.0005690608
0.00056796942
0.00056779106
0.00056800837
0.0005683832
0.00056891944
0.0005695467
0.00056995213
0.00056995213
0.0005695467
0.00056891944
0.00056838319
0.00056800837
0.00056779106
0.00056796942
0.0005690608
0.0005722893
0.00057998698
0.0005979731
0.00063966576
0.00074059454
0.00099408055
0.0021929737
0.0024980055
0.0011011089
0.00081302512
0.00069788605
0.00064974205
0.00062883815
0.00061983788
0.00061605389
0.00061475205
0.00061451782
0.00061474469
0.00061515717
0.00061575221
0.00061644948
0.00061690402
0.00061690402
0.00061644948
0.00061575221
0.00061515717
0.00061474469
0.00061451781
0.00061475204
0.00061605389
0.00061983787
0.00062883814
0.00064974205
0.00069788605
0.00081302512
0.0011011089
0.0024980066
0.0028511789
0.0012226662
0.00089422722
0.00076272204
0.0007070702
0.00068272945
0.00067217482
0.00066771804
0.00066615343
0.00066584312
0.00066607441
0.0006665268
0.00066718663
0.00066796085
0.00066846928
0.00066846928
0.00066796085
0.00066718663
0.0006665268
0.0006660744
0.00066584311
0.00066615343
0.00066771803
0.00067217481
0.00068272945
0.00070707019
0.00076272204
0.00089422722
0.0012226663
0.0028511801
0.0032597919
0.0013608465
0.00098534583
0.00083501384
0.00077063916
0.00074225568
0.00072984873
0.00072457804
0.00072268652
0.00072227427
0.00072250241
0.00072299627
0.00072372705
0.00072458562
0.00072515301
0.00072515301
0.00072458562
0.00072372705
0.00072299627
0.0007225024
0.00072227427
0.00072268652
0.00072457804
0.00072984873
0.00074225568
0.00077063915
0.00083501384
0.00098534582
0.0013608465
0.0032597933
0.0037321
0.0015179992
0.0010876545
0.00091570115
0.0008412137
0.00080808392
0.00079347359
0.00078722
0.00078492324
0.00078437632
0.00078459063
0.0007851264
0.00078593428
0.00078688497
0.00078751663
0.00078751663
0.00078688497
0.00078593428
0.00078512639
0.00078459063
0.00078437632
0.00078492323
0.00078722
0.00079347358
0.00080808392
0.00084121369
0.00091570115
0.0010876545
0.0015179993
0.0037321017
0.0042774375
0.0016967559
0.0012025657
0.0010058318
0.00091965025
0.00088096134
0.00086373611
0.00085629815
0.00085350099
0.00085277829
0.00085296418
0.0008535407
0.00085443157
0.00085548239
0.00085618379
0.00085618379
0.00085548239
0.00085443157
0.0008535407
0.00085296418
0.00085277828
0.00085350099
0.00085629814
0.0008637361
0.00088096133
0.00091965024
0.0010058317
0.0012025657
0.001696756
0.0042774395
0.0049063474
0.0019000495
0.0013316378
0.0011065681
0.0010069035
0.00096172149
0.00094140143
0.00093254023
0.00092912775
0.00092817802
0.00092831597
0.00092892994
0.00092990908
0.00093106808
0.00093184477
0.00093184477
0.00093106808
0.00092990908
0.00092892994
0.00092831597
0.00092817801
0.00092912774
0.00093254022
0.00094140142
0.00096172148
0.0010069035
0.001106568
0.0013316378
0.0019000496
0.0049063497
0.0056307218
0.0021311385
0.0014765829
0.0012191927
0.0011040326
0.0010512904
0.0010273187
0.0010167526
0.0010125868
0.0010113467
0.001011411
0.0010120563
0.001013128
0.001014403
0.0010152605
0.0010152605
0.001014403
0.001013128
0.0010120563
0.001011411
0.0010113467
0.0010125867
0.0010167526
0.0010273187
0.0010512904
0.0011040326
0.0012191927
0.0014765828
0.0021311386
0.0056307245
0.0064639249
0.0023936385
0.0016392756
0.0013451163
0.0012122093
0.0011506948
0.001122429
0.0011098276
0.0011047435
0.0011031353
0.0011030929
0.0011037598
0.0011049268
0.0011063251
0.0011072686
0.0011072686
0.0011063251
0.0011049268
0.0011037597
0.0011030929
0.0011031353
0.0011047435
0.0011098276
0.001122429
0.0011506948
0.0012122093
0.0013451163
0.0016392755
0.0023936386
0.006463928
0.0074211001
0.0026915528
0.0018217591
0.0014858824
0.0013327235
0.0012610678
0.0012277706
0.0012127486
0.0012065504
0.0012044795
0.001204288
0.0012049622
0.0012062254
0.0012077532
0.0012087877
0.0012087877
0.0012077532
0.0012062254
0.0012049622
0.001204288
0.0012044795
0.0012065503
0.0012127486
0.0012277706
0.0012610678
0.0013327235
0.0014858824
0.001821759
0.0026915529
0.0074211038
0.0085193515
0.0030293032
0.0020262503
0.0016431706
0.0014669876
0.0013836535
0.0013444839
0.0013265946
0.0013190511
0.0013164031
0.0013160092
0.0013166709
0.0013180284
0.0013196905
0.0013208201
0.0013208201
0.0013196905
0.0013180284
0.0013166709
0.0013160092
0.0013164031
0.0013190511
0.0013265945
0.0013444839
0.0013836535
0.0014669876
0.0016431706
0.0020262503
0.0030293034
0.0085193558
0.0097780408
0.0034117704
0.0022551511
0.001818803
0.0016165433
0.0015198147
0.0014738186
0.0014525472
0.0014433875
0.0014400249
0.0014393623
0.0014399848
0.0014414309
0.0014432304
0.0014444585
0.0014444585
0.0014432304
0.0014414309
0.0014399848
0.0014393623
0.0014400249
0.0014433875
0.0014525472
0.0014738186
0.0015198147
0.0016165433
0.0018188029
0.0022551511
0.0034117706
0.0097780458
0.011219101
0.0038443353
0.0025110539
0.002014746
0.0017830655
0.0016710371
0.0016171383
0.0015918948
0.0015808028
0.0015765617
0.0015755494
0.0015760975
0.001577622
0.0015795593
0.0015808882
0.0015808882
0.0015795593
0.001577622
0.0015760975
0.0015755494
0.0015765617
0.0015808028
0.0015918948
0.0016171383
0.0016710371
0.0017830654
0.002014746
0.0025110539
0.0038443356
0.011219107
0.01286738
0.0043334572
0.0027967518
0.0022331113
0.0019683634
0.0018389322
0.0017759233
0.0017460352
0.0017326449
0.0017273316
0.0017258709
0.0017262994
0.0017278863
0.0017299587
0.0017313891
0.0017313891
0.0017299587
0.0017278863
0.0017262994
0.0017258709
0.0017273316
0.0017326449
0.0017460352
0.0017759233
0.0018389322
0.0019683634
0.0022331113
0.0027967517
0.0043334575
0.012867387
0.014751044
0.0048868225
0.0031152539
0.0024761609
0.0021743867
0.0020252434
0.0019517777
0.0019164827
0.0019003723
0.0018937593
0.0018917316
0.0018919833
0.0018936097
0.0018958106
0.0018973414
0.0018973414
0.0018958106
0.0018936097
0.0018919833
0.0018917315
0.0018937593
0.0019003722
0.0019164827
0.0019517777
0.0020252434
0.0021743866
0.0024761608
0.0031152539
0.004886823
0.014751052
0.016901937
0.0055115666
0.0034697778
0.002746304
0.0024032242
0.0022318474
0.002146431
0.0021048699
0.0020855562
0.0020773783
0.0020746418
0.0020746458
0.0020762804
0.0020785986
0.0020802266
0.0020802266
0.0020785986
0.0020762804
0.0020746458
0.0020746418
0.0020773783
0.0020855562
0.0021048699
0.002146431
0.0022318473
0.0024032242
0.002746304
0.0034697777
0.0055115671
0.016901946
0.019356023
0.006215372
0.0038637467
0.0030460907
0.002657101
0.0024607525
0.0023617371
0.0023129467
0.0022898797
0.0022798294
0.0022762163
0.0022758856
0.0022774876
0.0022799065
0.0022816257
0.0022816257
0.0022799065
0.0022774876
0.0022758856
0.0022762163
0.0022798293
0.0022898797
0.0023129467
0.0023617371
0.0024607524
0.002657101
0.0030460907
0.0038637466
0.0062153726
0.019356034
0.022153738
0.0070067362
0.0043008051
0.0033782177
0.0029383794
0.0027141013
0.0025996775
0.0025425842
0.0025151411
0.0025028645
0.002498178
0.0024974076
0.002498925
0.0025014216
0.0025032229
0.0025032229
0.0025014216
0.002498925
0.0024974076
0.002498178
0.0025028645
0.0025151411
0.0025425841
0.0025996774
0.0027141012
0.0029383793
0.0033782176
0.004300805
0.0070067369
0.022153751
0.02533956
0.0078951007
0.0047848156
0.0037455264
0.0032495553
0.0029941675
0.0028623613
0.002795776
0.0027632565
0.0027483492
0.0027423603
0.0027410251
0.0027423939
0.0027449378
0.0027468087
0.0027468087
0.0027449377
0.0027423939
0.0027410251
0.0027423603