/*--------------------------------*- C++ -*----------------------------------*\
  =========                 |
  \\      /  F ield         | OpenFOAM: The Open Source CFD Toolbox
   \\    /   O peration     | Website:  https://openfoam.org
    \\  /    A nd           | Version:  8
     \\/     M anipulation  |
\*---------------------------------------------------------------------------*/
/*   Windows 32 and 64 bit porting by blueCAPE: http://www.bluecape.com.pt   *\
|  Based on Windows porting (2.0.x v4) by Symscape: http://www.symscape.com   |
\*---------------------------------------------------------------------------*/
FoamFile
{
    version     2.0;
    format      ascii;
    class       volScalarField;
    location    "60";
    object      k;
}
// * * * * * * * * * * * * * * * * * * * * * * * * * * * * * * * * * * * * * //

dimensions      [0 2 -2 0 0 0 0];

internalField   nonuniform List<scalar> 
283500
(
0.0041391158
0.0041381566
0.0041380922
0.0041380668
0.0041380525
0.0041380423
0.004138035
0.0041380298
0.004138026
0.0041380233
0.0041380214
0.0041380202
0.0041380194
0.0041380189
0.0041380186
0.0041380186
0.0041380189
0.0041380194
0.0041380202
0.0041380214
0.0041380233
0.004138026
0.0041380298
0.004138035
0.0041380423
0.0041380525
0.0041380668
0.0041380922
0.0041381566
0.0041391158
0.004138266
0.0041366858
0.0041365344
0.0041364783
0.0041364521
0.0041364307
0.0041364147
0.0041364028
0.004136394
0.0041363877
0.0041363832
0.0041363803
0.0041363784
0.0041363772
0.0041363766
0.0041363766
0.0041363772
0.0041363784
0.0041363803
0.0041363832
0.0041363877
0.004136394
0.0041364028
0.0041364147
0.0041364307
0.0041364521
0.0041364783
0.0041365344
0.0041366858
0.004138266
0.0041390349
0.0041360612
0.0041357789
0.004135691
0.0041356456
0.0041356052
0.0041355761
0.0041355562
0.0041355412
0.0041355303
0.0041355225
0.0041355172
0.0041355139
0.0041355119
0.0041355108
0.0041355108
0.0041355119
0.0041355139
0.0041355172
0.0041355225
0.0041355303
0.0041355412
0.0041355562
0.0041355761
0.0041356052
0.0041356456
0.004135691
0.0041357789
0.0041360612
0.0041390349
0.0041421161
0.0041366704
0.0041361689
0.0041360613
0.0041360069
0.0041359506
0.0041359068
0.0041358746
0.0041358504
0.0041358343
0.0041358226
0.0041358146
0.0041358096
0.0041358064
0.0041358048
0.0041358048
0.0041358064
0.0041358096
0.0041358146
0.0041358226
0.0041358343
0.0041358504
0.0041358746
0.0041359068
0.0041359506
0.0041360069
0.0041360613
0.0041361689
0.0041366704
0.0041421161
0.0041479695
0.0041388598
0.0041380046
0.0041378886
0.0041378375
0.0041377742
0.0041377197
0.0041376773
0.004137644
0.0041376205
0.0041376032
0.0041375917
0.0041375848
0.0041375804
0.004137578
0.004137578
0.0041375804
0.0041375848
0.0041375917
0.0041376032
0.0041376205
0.004137644
0.0041376773
0.0041377197
0.0041377742
0.0041378375
0.0041378886
0.0041380046
0.0041388598
0.0041479695
0.0041568511
0.0041429266
0.0041415291
0.0041414205
0.0041413854
0.0041413278
0.0041412696
0.0041412218
0.0041411821
0.0041411528
0.0041411308
0.0041411157
0.0041411062
0.0041411002
0.004141097
0.004141097
0.0041411002
0.0041411062
0.0041411157
0.0041411308
0.0041411528
0.0041411821
0.0041412218
0.0041412696
0.0041413278
0.0041413854
0.0041414205
0.0041415291
0.0041429266
0.0041568511
0.0041689383
0.0041491361
0.0041469671
0.0041468752
0.0041468695
0.0041468329
0.0041467803
0.0041467338
0.0041466919
0.0041466594
0.0041466343
0.0041466166
0.0041466053
0.004146598
0.0041465941
0.0041465941
0.004146598
0.0041466053
0.0041466166
0.0041466343
0.0041466594
0.0041466919
0.0041467338
0.0041467803
0.0041468329
0.0041468695
0.0041468752
0.0041469671
0.0041491361
0.0041689383
0.0041843533
0.0041577189
0.0041545205
0.0041544431
0.0041544814
0.0041544835
0.0041544473
0.0041544105
0.0041543716
0.0041543394
0.0041543132
0.0041542943
0.004154282
0.0041542739
0.0041542695
0.0041542695
0.0041542739
0.004154282
0.0041542943
0.0041543132
0.0041543394
0.0041543716
0.0041544105
0.0041544473
0.0041544835
0.0041544814
0.0041544431
0.0041545205
0.0041577189
0.0041843533
0.0042031773
0.0041688669
0.0041643617
0.004164284
0.0041643799
0.0041644394
0.0041644318
0.0041644144
0.004164385
0.0041643575
0.0041643331
0.0041643147
0.0041643025
0.0041642944
0.0041642898
0.0041642898
0.0041642944
0.0041643025
0.0041643147
0.0041643331
0.0041643575
0.004164385
0.0041644144
0.0041644318
0.0041644394
0.0041643799
0.004164284
0.0041643617
0.0041688669
0.0042031774
0.0042254709
0.0041827342
0.0041766351
0.0041765302
0.0041766957
0.0041768309
0.004176865
0.004176878
0.0041768655
0.004176848
0.0041768287
0.004176813
0.0041768024
0.0041767951
0.0041767906
0.0041767906
0.0041767951
0.0041768024
0.004176813
0.0041768287
0.004176848
0.0041768655
0.004176878
0.004176865
0.0041768309
0.0041766957
0.0041765302
0.0041766351
0.0041827342
0.0042254709
0.0042512883
0.0041994446
0.0041914597
0.0041912919
0.0041915371
0.0041917659
0.0041918551
0.0041919104
0.0041919232
0.0041919217
0.0041919116
0.004191901
0.0041918938
0.0041918883
0.0041918844
0.0041918844
0.0041918883
0.0041918938
0.004191901
0.0041919116
0.0041919217
0.0041919232
0.0041919104
0.0041918551
0.0041917659
0.0041915371
0.0041912919
0.0041914597
0.0041994446
0.0042512883
0.0042806903
0.0042190959
0.004208935
0.0042086625
0.0042089963
0.004209335
0.0042094927
0.0042096027
0.0042096498
0.0042096711
0.0042096749
0.0042096725
0.0042096709
0.0042096685
0.0042096656
0.0042096656
0.0042096685
0.0042096709
0.0042096725
0.0042096749
0.0042096711
0.0042096498
0.0042096027
0.0042094927
0.004209335
0.0042089963
0.0042086625
0.004208935
0.0042190959
0.0042806903
0.0043137483
0.0042417668
0.0042291459
0.0042287235
0.0042291541
0.0042296171
0.0042298558
0.0042300331
0.0042301239
0.0042301757
0.0042301985
0.004230208
0.0042302144
0.0042302167
0.0042302155
0.0042302155
0.0042302167
0.0042302144
0.004230208
0.0042301985
0.0042301757
0.0042301239
0.0042300331
0.0042298558
0.0042296171
0.0042291541
0.0042287235
0.0042291459
0.0042417668
0.0043137483
0.0043505418
0.0042675251
0.0042521635
0.0042515472
0.0042520835
0.0042526832
0.0042530144
0.0042532707
0.004253415
0.004253505
0.0042535526
0.004253578
0.0042535956
0.0042536044
0.0042536056
0.0042536056
0.0042536044
0.0042535956
0.004253578
0.0042535526
0.004253505
0.004253415
0.0042532707
0.0042530144
0.0042526832
0.0042520835
0.0042515472
0.0042521635
0.0042675251
0.0043505418
0.004391158
0.0042964321
0.0042780486
0.0042771996
0.004277852
0.0042785998
0.0042790333
0.0042793795
0.0042795863
0.0042797227
0.0042798012
0.0042798471
0.0042798792
0.0042798968
0.0042799011
0.0042799011
0.0042798968
0.0042798792
0.0042798471
0.0042798012
0.0042797227
0.0042795863
0.0042793795
0.0042790333
0.0042785998
0.004277852
0.0042771996
0.0042780486
0.0042964321
0.0043911581
0.0044356908
0.0043285444
0.0043068575
0.0043057419
0.0043065246
0.0043074306
0.0043079747
0.0043084204
0.0043086982
0.0043088889
0.0043090047
0.0043090759
0.0043091264
0.0043091551
0.0043091636
0.0043091636
0.0043091551
0.0043091264
0.0043090759
0.0043090047
0.0043088889
0.0043086982
0.0043084204
0.0043079747
0.0043074306
0.0043065246
0.0043057419
0.0043068575
0.0043285444
0.0044356909
0.0044842386
0.0043639166
0.0043386439
0.0043372325
0.0043381647
0.004339239
0.0043399009
0.0043404544
0.0043408106
0.0043410628
0.004341222
0.0043413235
0.0043413965
0.0043414392
0.0043414529
0.0043414529
0.0043414392
0.0043413965
0.0043413235
0.004341222
0.0043410628
0.0043408106
0.0043404544
0.0043399009
0.004339239
0.0043381647
0.0043372325
0.0043386439
0.0043639166
0.0044842387
0.004536901
0.0044026019
0.004373461
0.0043717285
0.0043728344
0.0043740897
0.0043748756
0.0043755438
0.0043759842
0.0043763043
0.0043765126
0.0043766494
0.0043767491
0.0043768089
0.0043768289
0.0043768289
0.0043768089
0.0043767491
0.0043766494
0.0043765126
0.0043763043
0.0043759842
0.0043755438
0.0043748756
0.0043740897
0.0043728344
0.0043717285
0.004373461
0.0044026019
0.0045369011
0.0045937773
0.0044446537
0.0044113625
0.0044092871
0.0044105964
0.0044120488
0.0044129656
0.0044137534
0.0044142824
0.0044146756
0.004414938
0.0044151148
0.0044152455
0.0044153253
0.0044153529
0.0044153529
0.0044153253
0.0044152455
0.0044151148
0.004414938
0.0044146756
0.0044142824
0.0044137534
0.0044129656
0.0044120488
0.0044105964
0.0044092871
0.0044113625
0.0044446537
0.0045937774
0.0046549658
0.004490126
0.0044524036
0.0044499668
0.004451514
0.0044531847
0.0044542405
0.0044551513
0.0044557718
0.0044562421
0.0044565625
0.0044567833
0.0044569488
0.0044570521
0.0044570881
0.0044570881
0.0044570521
0.0044569488
0.0044567833
0.0044565625
0.0044562421
0.0044557718
0.0044551513
0.0044542405
0.0044531847
0.004451514
0.0044499668
0.0044524036
0.004490126
0.004654966
0.0047205664
0.0045390733
0.0044966425
0.0044938285
0.0044956526
0.0044975668
0.0044987724
0.0044998093
0.0045005224
0.0045010723
0.0045014535
0.0045017216
0.0045019254
0.0045020551
0.0045021005
0.0045021005
0.0045020551
0.0045019254
0.0045017216
0.0045014535
0.0045010723
0.0045005224
0.0044998093
0.0044987724
0.0044975668
0.0044956526
0.0044938285
0.0044966425
0.0045390733
0.0047205666
0.0047906839
0.0045915508
0.0045441414
0.004540936
0.0045430796
0.0045452668
0.0045466366
0.0045478032
0.0045486086
0.004549239
0.0045496824
0.0045499997
0.0045502445
0.0045504035
0.0045504591
0.0045504591
0.0045504035
0.0045502445
0.0045499997
0.0045496824
0.004549239
0.0045486086
0.0045478032
0.0045466366
0.0045452668
0.0045430796
0.004540936
0.0045441414
0.0045915508
0.0047906842
0.0048654316
0.0046476143
0.0045949675
0.0045913573
0.0045938662
0.0045963597
0.0045979113
0.0045992128
0.0046001095
0.0046008195
0.0046013249
0.0046016925
0.00460198
0.0046021704
0.0046022365
0.0046022365
0.0046021704
0.00460198
0.0046016925
0.0046013249
0.0046008195
0.0046001095
0.0045992128
0.0045979113
0.0045963597
0.0045938662
0.0045913573
0.0045949675
0.0046476143
0.0048654318
0.0049449344
0.0047073199
0.0046491928
0.0046451653
0.0046480873
0.004650924
0.0046526785
0.0046541222
0.0046551093
0.0046558961
0.0046564617
0.0046568791
0.0046572097
0.0046574331
0.0046575097
0.0046575097
0.0046574331
0.0046572097
0.0046568791
0.0046564617
0.0046558961
0.0046551093
0.0046541222
0.0046526785
0.004650924
0.0046480873
0.0046451653
0.0046491928
0.0047073199
0.0049449347
0.0050293341
0.0047707238
0.0047068943
0.0047024383
0.0047058229
0.0047090419
0.0047110235
0.0047126195
0.0047136968
0.0047145565
0.0047151786
0.0047156437
0.0047160165
0.0047162735
0.0047163603
0.0047163603
0.0047162735
0.0047160165
0.0047156437
0.0047151786
0.0047145565
0.0047136968
0.0047126195
0.0047110235
0.0047090419
0.0047058229
0.0047024383
0.0047068943
0.0047707238
0.0050293343
0.0051187952
0.0048378819
0.0047681538
0.0047632604
0.0047671585
0.0047708009
0.0047730359
0.0047747965
0.0047759657
0.0047768939
0.0047775669
0.0047780761
0.004778489
0.0047787792
0.0047788751
0.0047788751
0.0047787792
0.004778489
0.0047780761
0.0047775669
0.0047768939
0.0047759657
0.0047747965
0.0047730359
0.0047708009
0.0047671585
0.0047632604
0.0047681538
0.004837882
0.0051187955
0.0052135085
0.0049088508
0.0048330577
0.0048277212
0.0048321848
0.004836293
0.0048388097
0.0048407494
0.0048420144
0.0048430072
0.0048437242
0.0048442721
0.0048447215
0.0048450434
0.0048451471
0.0048451471
0.0048450434
0.0048447215
0.0048442721
0.0048437242
0.0048430072
0.0048420144
0.0048407494
0.0048388097
0.004836293
0.0048321848
0.0048277212
0.0048330577
0.0049088508
0.0052135089
0.0053136937
0.0049836859
0.0049016973
0.0048959151
0.0049009972
0.0049056147
0.0049084426
0.0049105772
0.0049119437
0.004912999
0.0049137529
0.0049143325
0.0049148137
0.0049151647
0.0049152745
0.0049152745
0.0049151647
0.0049148137
0.0049143325
0.0049137529
0.004912999
0.0049119437
0.0049105772
0.0049084426
0.0049056147
0.0049009972
0.0048959151
0.0049016973
0.0049836859
0.0053136941
0.0054196049
0.0050624382
0.0049741688
0.0049679422
0.0049736964
0.004978867
0.0049820359
0.004984382
0.004985857
0.0049869741
0.0049877583
0.0049883618
0.0049888687
0.0049892452
0.0049893595
0.0049893595
0.0049892452
0.0049888687
0.0049883618
0.0049877583
0.0049869741
0.004985857
0.004984382
0.0049820359
0.004978867
0.0049736964
0.0049679422
0.0049741688
0.0050624382
0.0054196053
0.0055315374
0.0051451543
0.0050505714
0.0050439077
0.0050503887
0.0050561561
0.0050596965
0.0050622711
0.0050638619
0.0050650411
0.0050658496
0.0050664691
0.0050669945
0.0050673919
0.0050675087
0.0050675087
0.0050673919
0.0050669945
0.0050664691
0.0050658496
0.0050650411
0.0050638619
0.0050622711
0.0050596965
0.0050561561
0.0050503887
0.0050439077
0.0050505714
0.0051451543
0.0055315378
0.0056498345
0.0052318795
0.0051310087
0.0051239211
0.0051311853
0.0051375936
0.0051415359
0.0051443565
0.0051460713
0.0051473135
0.0051481417
0.0051487692
0.005149305
0.0051497173
0.005149834
0.005149834
0.0051497173
0.005149305
0.0051487692
0.0051481417
0.0051473135
0.0051460713
0.0051443565
0.0051415359
0.0051375936
0.0051311853
0.0051239211
0.0051310086
0.0052318795
0.005649835
0.0057748956
0.0053226593
0.0052155891
0.0052080968
0.0052162019
0.005223295
0.0052276697
0.0052307542
0.005232602
0.0052339091
0.0052347534
0.0052353816
0.0052359196
0.0052363399
0.0052364551
0.0052364551
0.0052363399
0.0052359196
0.0052353816
0.0052347534
0.0052339091
0.005232602
0.0052307542
0.0052276697
0.005223295
0.0052162019
0.0052080968
0.0052155891
0.0053226593
0.0057748961
0.0059071833
0.0054175401
0.0053044259
0.0052965536
0.005305558
0.0053133798
0.0053182166
0.0053215823
0.0053235727
0.0053249474
0.0053258053
0.0053264281
0.0053269605
0.005327382
0.0053274948
0.0053274948
0.005327382
0.0053269605
0.0053264281
0.0053258053
0.0053249474
0.0053235727
0.0053215823
0.0053182166
0.0053133798
0.005305558
0.0052965536
0.0053044258
0.0054175401
0.0059071839
0.0060472385
0.0055165729
0.0053976404
0.0053894178
0.0053993794
0.0054079727
0.0054133006
0.0054169642
0.0054191062
0.0054205519
0.0054214221
0.0054220345
0.0054225541
0.0054229712
0.0054230804
0.0054230804
0.0054229712
0.0054225541
0.0054220345
0.0054214221
0.0054205519
0.0054191062
0.0054169642
0.0054133006
0.0054079727
0.0053993794
0.0053894178
0.0053976404
0.0055165729
0.0060472391
0.0061956951
0.0056198181
0.0054953646
0.005486824
0.0054977984
0.0055072046
0.0055130516
0.0055170286
0.0055193305
0.0055208506
0.0055217333
0.0055223319
0.005522833
0.0055232412
0.0055233461
0.0055233461
0.0055232412
0.005522833
0.0055223319
0.0055217333
0.0055208506
0.0055193305
0.0055170286
0.0055130516
0.0055072046
0.0054977984
0.005486824
0.0054953646
0.0056198181
0.0061956958
0.006353299
0.00572735
0.0055977434
0.0055889169
0.0056009542
0.0056112127
0.0056176048
0.0056219089
0.0056243787
0.0056259774
0.0056268738
0.0056274569
0.0056279357
0.0056283317
0.005628431
0.005628431
0.0056283317
0.0056279357
0.0056274569
0.0056268738
0.0056259774
0.0056243787
0.0056219089
0.0056176048
0.0056112127
0.0056009542
0.0055889169
0.0055977433
0.00572735
0.0063532997
0.0065209285
0.005839268
0.0057049403
0.005695856
0.0057089977
0.0057201443
0.0057271053
0.0057317488
0.005734394
0.0057360754
0.0057369877
0.005737555
0.0057380093
0.0057383906
0.0057384835
0.0057384835
0.0057383906
0.0057380093
0.005737555
0.0057369877
0.0057360754
0.005734394
0.0057317488
0.0057271053
0.0057201443
0.0057089977
0.005695856
0.0057049403
0.005839268
0.0065209294
0.0066996422
0.0059557041
0.0058171426
0.0058078189
0.005822094
0.0058341586
0.0058417091
0.0058467033
0.005849531
0.0058512988
0.0058522289
0.0058527812
0.0058532105
0.0058535757
0.0058536622
0.0058536622
0.0058535757
0.0058532105
0.0058527812
0.0058522289
0.0058512988
0.005849531
0.0058467033
0.0058417091
0.0058341586
0.005822094
0.0058078189
0.0058171426
0.0059557041
0.0066996431
0.0068906978
0.0060768383
0.0059345673
0.0059250044
0.0059404251
0.0059534287
0.0059615857
0.0059669409
0.0059699574
0.0059718145
0.0059727643
0.005973303
0.0059737079
0.0059740566
0.005974137
0.005974137
0.0059740566
0.0059737079
0.005973303
0.0059727643
0.0059718145
0.0059699574
0.0059669409
0.0059615857
0.0059534287
0.0059404251
0.0059250044
0.0059345672
0.0060768383
0.0068906987
0.0070956074
0.0062029207
0.0060574722
0.0060476407
0.0060641958
0.0060781479
0.006086924
0.0060926481
0.0060958585
0.0060978073
0.0060987787
0.0060993057
0.0060996878
0.0061000205
0.0061000959
0.0061000959
0.0061000205
0.0060996878
0.0060993057
0.0060987787
0.0060978073
0.0060958585
0.0060926481
0.006086924
0.0060781479
0.0060641958
0.0060476407
0.0060574722
0.0062029207
0.0070956084
0.0073161753
0.0063342917
0.0061861662
0.0061759917
0.0061936383
0.0062085348
0.0062179357
0.0062240336
0.0062274414
0.006229484
0.0062304788
0.0062309962
0.0062313577
0.0062316759
0.0062317475
0.0062317475
0.0062316759
0.0062313577
0.0062309962
0.0062304788
0.006229484
0.0062274414
0.0062240336
0.0062179357
0.0062085348
0.0061936383
0.0061759917
0.0061861662
0.0063342917
0.0073161765
0.0075545737
0.0064714062
0.006321022
0.0063103667
0.0063290191
0.0063448366
0.0063548587
0.0063613314
0.0063649389
0.0063670767
0.0063680971
0.0063686071
0.0063689507
0.0063692566
0.0063693259
0.0063693259
0.0063692566
0.0063689507
0.0063686071
0.0063680971
0.0063670767
0.0063649389
0.0063613314
0.0063548587
0.0063448366
0.0063290191
0.0063103667
0.006321022
0.0064714062
0.0075545749
0.0078134045
0.0066148725
0.0064624977
0.0064511339
0.0064706452
0.0064873325
0.0064979602
0.0065048045
0.006508617
0.0065108521
0.0065119003
0.0065124055
0.0065127345
0.0065130305
0.0065130993
0.0065130993
0.0065130305
0.0065127345
0.0065124055
0.0065119003
0.0065108521
0.006508617
0.0065048045
0.0064979602
0.0064873325
0.0064706452
0.0064511339
0.0064624977
0.0066148725
0.0078134058
0.0080957833
0.0067654972
0.0066111488
0.0065987293
0.0066188784
0.0066363532
0.0066475555
0.0066547616
0.0066587765
0.0066611158
0.0066621959
0.0066626995
0.0066630174
0.0066633061
0.0066633762
0.0066633762
0.0066633061
0.0066630174
0.0066626995
0.0066621959
0.0066611158
0.0066587765
0.0066547616
0.0066475555
0.0066363532
0.0066188784
0.0065987293
0.0066111488
0.0067654972
0.0080957848
0.0084054322
0.0069243483
0.0067676484
0.006753668
0.0067741514
0.0067922883
0.0068040136
0.0068115632
0.0068157746
0.0068182176
0.0068193391
0.0068198449
0.006820156
0.0068204402
0.0068205134
0.0068205134
0.0068204402
0.006820156
0.0068198449
0.0068193391
0.0068182176
0.0068157746
0.0068115632
0.0068040136
0.0067922883
0.0067741514
0.006753668
0.0067676484
0.0069243483
0.0084054338
0.008746786
0.0070927721
0.0069328104
0.0069165756
0.0069369793
0.0069555974
0.0069677684
0.006975632
0.0069800295
0.0069825744
0.0069837412
0.0069842586
0.0069845675
0.006984851
0.0069849294
0.0069849294
0.006984851
0.0069845675
0.0069842586
0.0069837412
0.0069825744
0.0069800295
0.006975632
0.0069677684
0.0069555974
0.0069369793
0.0069165756
0.0069328104
0.0070927721
0.0087467877
0.0091251036
0.0072724534
0.0071076263
0.0070882036
0.0071079751
0.0071268245
0.0071393306
0.0071474642
0.0071520314
0.0071546744
0.0071558883
0.0071564279
0.0071567414
0.0071570284
0.0071571144
0.0071571144
0.0071570284
0.0071567414
0.0071564279
0.0071558883
0.0071546744
0.0071520314
0.0071474642
0.0071393306
0.0071268245
0.0071079751
0.0070882036
0.0071076263
0.0072724535
0.0091251055
0.0095465868
0.0074654828
0.007293299
0.0072694527
0.0072878683
0.0073066125
0.0073193014
0.0073276422
0.0073323546
0.0073350897
0.007336352
0.007336918
0.0073372492
0.0073375459
0.007337641
0.007337641
0.0073375459
0.0073372492
0.007336918
0.007336352
0.0073350897
0.0073323546
0.0073276422
0.0073193014
0.0073066125
0.0072878683
0.0072694527
0.007293299
0.0074654828
0.0095465888
0.010018518
0.0076744183
0.007491281
0.0074614037
0.0074775305
0.0074957256
0.0075083929
0.007516854
0.0075216771
0.0075244949
0.0075258063
0.0075264034
0.007526759
0.0075270718
0.0075271796
0.0075271796
0.0075270718
0.007526759
0.0075264034
0.0075258063
0.0075244949
0.0075216771
0.007516854
0.0075083929
0.0074957256
0.0074775305
0.0074614037
0.007491281
0.0076744183
0.01001852
0.010549409
0.0079023524
0.0077033117
0.0076653477
0.0076779996
0.0076950697
0.0077074457
0.00771591
0.0077207966
0.0077236834
0.0077250442
0.0077256773
0.0077260653
0.0077264018
0.0077265267
0.0077265267
0.0077264018
0.0077260653
0.0077256773
0.0077250442
0.0077236834
0.0077207966
0.00771591
0.0077074457
0.0076950697
0.0076779996
0.0076653476
0.0077033117
0.0079023525
0.010549412
0.011149148
0.0081529984
0.0079314593
0.0078828202
0.0078905074
0.0079057153
0.0079174501
0.0079257627
0.0079306485
0.007933585
0.0079349945
0.0079356696
0.0079360988
0.0079364684
0.007936616
0.007936616
0.0079364684
0.0079360988
0.0079356696
0.0079349945
0.007933585
0.0079306485
0.0079257627
0.0079174501
0.0079057153
0.0078905074
0.0078828202
0.0079314593
0.0081529984
0.01114915
0.011829164
0.0084306708
0.0081781716
0.0081156397
0.0081165142
0.0081289293
0.0081395746
0.008147534
0.0081523334
0.0081552907
0.0081567463
0.0081574708
0.0081579523
0.0081583661
0.0081585434
0.0081585434
0.0081583661
0.0081579523
0.0081574708
0.0081567463
0.0081552907
0.0081523334
0.008147534
0.0081395746
0.0081289293
0.0081165142
0.0081156397
0.0081781715
0.0084306709
0.011829168
0.012602609
0.0087403918
0.0084463196
0.008365942
0.008357742
0.0083662036
0.0083751927
0.0083825394
0.0083871393
0.0083900773
0.0083915725
0.0083923549
0.0083929022
0.0083933739
0.0083935898
0.0083935898
0.0083933739
0.0083929022
0.0083923549
0.0083915725
0.0083900772
0.0083871393
0.0083825394
0.0083751927
0.0083662036
0.008357742
0.0083659419
0.0084463196
0.0087403919
0.012602613
0.013484525
0.0090880071
0.0087392432
0.0086362224
0.0086162101
0.0086192869
0.0086259109
0.0086323148
0.0086365683
0.0086394313
0.0086409544
0.0086418029
0.0086424323
0.0086429789
0.008643244
0.008643244
0.0086429789
0.0086424323
0.0086418029
0.0086409544
0.0086394313
0.0086365683
0.0086323148
0.0086259109
0.0086192868
0.0086162101
0.0086362223
0.0087392431
0.0090880072
0.013484529
0.01449203
0.0094802162
0.0090608033
0.0089293888
0.0088942816
0.0088902251
0.0088936059
0.0088986508
0.0089023694
0.0089050831
0.0089066145
0.0089075363
0.0089082663
0.008908908
0.0089092354
0.0089092354
0.008908908
0.0089082663
0.0089075363
0.0089066145
0.0089050831
0.0089023693
0.0088986508
0.0088936059
0.0088902251
0.0088942816
0.0089293888
0.0090608032
0.0094802164
0.014492034
0.015644507
0.0099246328
0.0094154253
0.0092488029
0.0091947028
0.009181399
0.0091804581
0.0091836244
0.0091865682
0.0091890344
0.0091905449
0.0091915443
0.009192395
0.0091931556
0.0091935604
0.0091935604
0.0091931556
0.009192395
0.0091915443
0.0091905449
0.0091890344
0.0091865682
0.0091836244
0.0091804581
0.009181399
0.0091947028
0.0092488029
0.0094154253
0.009924633
0.015644512
0.016963781
0.010429842
0.0098081321
0.0095983171
0.0095206427
0.009495561
0.009488986
0.0094896303
0.0094914974
0.0094935881
0.0094950353
0.0094961122
0.0094971049
0.0094980113
0.0094985107
0.0094985107
0.0094980113
0.0094971049
0.0094961122
0.0094950353
0.0094935881
0.0094914974
0.0094896303
0.009488986
0.0094955609
0.0095206427
0.009598317
0.009808132
0.010429842
0.016963786
0.018474353
0.011005482
0.010244589
0.0099823194
0.0098757412
0.0098358812
0.0098220901
0.0098194222
0.0098198355
0.009821386
0.0098227106
0.0098238585
0.0098250143
0.009826096
0.0098267091
0.0098267091
0.009826096
0.0098250143
0.0098238585
0.0098227106
0.009821386
0.0098198355
0.0098194222
0.0098220901
0.0098358812
0.0098757412
0.0099823194
0.010244589
0.011005482
0.018474358
0.020203608
0.011662288
0.01073114
0.01040577
0.010264148
0.010205986
0.010183088
0.010176147
0.01017464
0.01017544
0.010176561
0.010177764
0.010179103
0.010180391
0.010181139
0.010181139
0.010180391
0.010179103
0.010177764
0.010176561
0.01017544
0.01017464
0.010176147
0.010183088
0.010205986
0.010264148
0.01040577
0.01073114
0.011662288
0.020203615
0.022182033
0.012412161
0.011274836
0.010874233
0.01069056
0.010609994
0.010575749
0.010563377
0.010559376
0.010559161
0.010559971
0.010561202
0.01056274
0.010564267
0.01056517
0.01056517
0.010564267
0.01056274
0.010561202
0.010559971
0.010559161
0.010559376
0.010563377
0.010575749
0.010609994
0.01069056
0.010874233
0.011274836
0.012412161
0.02218204
0.024443335
0.013268245
0.011883472
0.011393909
0.011160263
0.011052565
0.011004341
0.010985153
0.01097796
0.0109764
0.010976756
0.010977973
0.01097972
0.010981517
0.010982598
0.010982598
0.010981517
0.01097972
0.010977973
0.010976756
0.010976399
0.01097796
0.010985153
0.011004341
0.011052565
0.011160263
0.011393909
0.011883472
0.013268246
0.024443344
0.02702503
0.014245005
0.012565601
0.01197166
0.011679163
0.01153893
0.01147366
0.011446015
0.011434788
0.011431472
0.011431192
0.01143233
0.011434291
0.011436384
0.011437666
0.011437666
0.011436384
0.011434291
0.01143233
0.011431192
0.011431472
0.011434788
0.011446015
0.01147366
0.01153893
0.011679163
0.01197166
0.012565601
0.014245005
0.027025039
0.029968606
0.015358289
0.013330547
0.012615019
0.012253804
0.012074917
0.011989061
0.011951029
0.011934759
0.011929186
0.011928033
0.011929007
0.011931172
0.011933585
0.011935085
0.011935085
0.011933585
0.011931172
0.011929007
0.011928033
0.011929186
0.011934759
0.011951029
0.011989061
0.012074917
0.012253804
0.012615019
0.013330547
0.015358289
0.029968617
0.033319956
0.016625423
0.014188441
0.013332212
0.012891399
0.012666989
0.012556493
0.012505824
0.012483314
0.012474873
0.012472553
0.012473242
0.012475587
0.012478335
0.012480072
0.012480072
0.012478335
0.012475587
0.012473242
0.012472553
0.012474873
0.012483314
0.012505824
0.012556493
0.012666989
0.012891399
0.013332212
0.01418844
0.016625424
0.033319968
0.037129766
0.018065303
0.015150223
0.014132156
0.013599845
0.013322262
0.013182518
0.013116611
0.01308645
0.013074405
0.013070553
0.013070799
0.013073279
0.013076368
0.013078354
0.013078354
0.013076368
0.013073279
0.013070799
0.013070553
0.013074405
0.01308645
0.013116611
0.013182518
0.013322262
0.013599845
0.014132156
0.015150223
0.018065304
0.03712978
0.041453913
0.019700178
0.016227671
0.015024451
0.014387717
0.014048515
0.013874332
0.013790197
0.013750738
0.013734211
0.01372838
0.013727977
0.013730521
0.013733941
0.013736184
0.013736183
0.013733941
0.01373052
0.013727977
0.013728379
0.013734211
0.013750738
0.013790197
0.013874332
0.014048515
0.014387716
0.015024451
0.01622767
0.019700179
0.04145393
0.046353931
0.021555866
0.017433431
0.016019389
0.015264281
0.01485421
0.01463978
0.014534014
0.014483344
0.014461298
0.014452943
0.014451631
0.014454132
0.014457859
0.014460358
0.014460358
0.014457859
0.014454132
0.014451631
0.014452943
0.014461298
0.014483344
0.014534014
0.01463978
0.01485421
0.015264281
0.016019389
0.017433431
0.021555867
0.046353949
0.051897261
0.0236563
0.018780976
0.017127923
0.016239482
0.015748483
0.015487368
0.015356117
0.015292036
0.015263251
0.015251722
0.015249171
0.015251488
0.015255474
0.015258218
0.015258218
0.015255474
0.015251488
0.015249171
0.015251722
0.015263251
0.015292036
0.015356117
0.015487368
0.015748483
0.016239482
0.017127922
0.018780975
0.023656301
0.051897282
0.058157608
0.026027001
0.020284572
0.018361624
0.017323906
0.016741134
0.016426237
0.016265177
0.016185169
0.016148226
0.016132744
0.01612855
0.016130494
0.016134669
0.016137636
0.016137636
0.016134669
0.016130494
0.01612855
0.016132744
0.016148226
0.016185169
0.016265177
0.016426237
0.016741134
0.017323906
0.018361624
0.020284571
0.026027003
0.058157633
0.065215002
0.0286957
0.021959319
0.01973269
0.018528771
0.017842609
0.017466171
0.017270482
0.017171692
0.017124951
0.017104601
0.017098273
0.017099603
0.017103863
0.017107017
0.017107017
0.017103863
0.017099603
0.017098273
0.017104601
0.017124951
0.017171692
0.017270482
0.017466171
0.017842609
0.01852877
0.019732689
0.021959318
0.028695702
0.06521503
0.073154205
0.031692579
0.023821115
0.021253915
0.01986589
0.019063979
0.018617582
0.018381933
0.018261149
0.018202732
0.018176442
0.018167394
0.018167809
0.018172018
0.018175307
0.018175307
0.018172018
0.018167809
0.018167394
0.018176442
0.018202732
0.018261149
0.018381933
0.018617582
0.019063979
0.01986589
0.021253914
0.023821114
0.031692581
0.073154237
0.08206735
0.035050597
0.025886664
0.022938631
0.021347642
0.020416919
0.019891503
0.019610039
0.019463669
0.019391439
0.019357972
0.019345507
0.019344641
0.019348622
0.019351975
0.019351975
0.019348622
0.019344641
0.019345507
0.019357972
0.019391439
0.019463669
0.019610039
0.019891503
0.020416919
0.021347642
0.02293863
0.025886663
0.035050599
0.082067386
0.092051741
0.038805949
0.028173602
0.024800686
0.022986963
0.021913707
0.021299577
0.020965908
0.02078996
0.020701504
0.020659435
0.020642738
0.020640146
0.020643679
0.020647003
0.020647003
0.020643679
0.020640146
0.020642738
0.020659435
0.020701504
0.02078996
0.020965908
0.021299576
0.021913707
0.022986962
0.024800685
0.028173602
0.038805953
0.092051782
0.10320824
0.042998523
0.030700513
0.026854399
0.024797268
0.023567158
0.022853994
0.022461189
0.022251259
0.022143868
0.022091574
0.022069697
0.02206485
0.022067663
0.022070841
0.022070841
0.022067663
0.02206485
0.022069697
0.022091574
0.022143868
0.022251259
0.022461189
0.022853994
0.023567157
0.024797267
0.026854398
0.030700512
0.042998527
0.10320828
0.11563876
0.047672375
0.033486877
0.029114493
0.026792355
0.025390533
0.024567427
0.024108016
0.023859276
0.023729935
0.023665577
0.023637429
0.023629706
0.023631471
0.023634361
0.023634361
0.023631471
0.023629706
0.023637429
0.023665577
0.023729935
0.023859276
0.024108016
0.024567427
0.025390533
0.026792354
0.029114492
0.033486876
0.04767238
0.11563882
0.12944286
0.052876394
0.036552973
0.031596061
0.028986351
0.027397506
0.026453001
0.025918982
0.025626173
0.025471544
0.02539306
0.025357396
0.025346075
0.025346404
0.025348834
0.025348834
0.025346404
0.025346075
0.025357396
0.02539306
0.025471544
0.025626173
0.025918982
0.026453
0.027397506
0.02898635
0.03159606
0.036552972
0.0528764
0.12944292
0.14471308
0.058664718
0.039920097
0.034314501
0.031393641
0.029602082
0.028524216
0.027907077
0.027564508
0.027380924
0.027286015
0.027241426
0.027225679
0.027224117
0.027225884
0.027225884
0.027224117
0.027225679
0.027241426
0.027286015
0.027380924
0.027564508