/*--------------------------------*- C++ -*----------------------------------*\
  =========                 |
  \\      /  F ield         | OpenFOAM: The Open Source CFD Toolbox
   \\    /   O peration     | Website:  https://openfoam.org
    \\  /    A nd           | Version:  8
     \\/     M anipulation  |
\*---------------------------------------------------------------------------*/
/*   Windows 32 and 64 bit porting by blueCAPE: http://www.bluecape.com.pt   *\
|  Based on Windows porting (2.0.x v4) by Symscape: http://www.symscape.com   |
\*---------------------------------------------------------------------------*/
FoamFile
{
    version     2.0;
    format      ascii;
    class       volScalarField;
    location    "60";
    object      nut;
}
// * * * * * * * * * * * * * * * * * * * * * * * * * * * * * * * * * * * * * //

dimensions      [0 2 -1 0 0 0 0];

internalField   nonuniform List<scalar> 
283500
(
0.034780549
0.034908697
0.03495063
0.034959175
0.034965082
0.034969414
0.034972755
0.034975308
0.034977198
0.034978566
0.034979521
0.03498015
0.034980532
0.034980773
0.034980907
0.034980907
0.034980773
0.034980532
0.03498015
0.034979521
0.034978566
0.034977198
0.034975308
0.034972755
0.034969414
0.034965082
0.034959175
0.03495063
0.034908697
0.034780549
0.03409247
0.034471523
0.034585843
0.034609715
0.034625656
0.034637249
0.034646147
0.034652935
0.034657968
0.034661612
0.034664161
0.034665839
0.03466686
0.0346675
0.034667857
0.034667857
0.0346675
0.03466686
0.034665839
0.034664161
0.034661612
0.034657968
0.034652935
0.034646147
0.034637249
0.034625656
0.034609715
0.034585843
0.034471523
0.03409247
0.033130464
0.033860519
0.034072351
0.034117431
0.034146419
0.034167289
0.034183216
0.034195338
0.034204324
0.034210831
0.034215383
0.034218382
0.034220206
0.034221348
0.034221982
0.034221982
0.034221348
0.034220206
0.034218382
0.034215383
0.034210831
0.034204324
0.034195338
0.034183216
0.034167289
0.034146419
0.034117431
0.034072351
0.033860519
0.033130464
0.031966895
0.033105984
0.033435265
0.033506713
0.033551131
0.033582775
0.033606744
0.033624904
0.033638354
0.033648098
0.033654913
0.033659404
0.033662135
0.033663842
0.033664788
0.033664788
0.033663842
0.033662135
0.033659404
0.033654913
0.033648098
0.033638354
0.033624904
0.033606744
0.033582775
0.033551131
0.033506713
0.033435265
0.033105983
0.031966894
0.030677836
0.03223926
0.032699379
0.032800804
0.032862378
0.032905831
0.032938489
0.032963108
0.032981309
0.032994479
0.033003688
0.033009757
0.03301345
0.033015754
0.033017028
0.033017028
0.033015754
0.03301345
0.033009757
0.033003688
0.032994479
0.032981309
0.032963108
0.032938489
0.032905831
0.032862378
0.032800804
0.032699379
0.03223926
0.030677835
0.029330267
0.031292274
0.031889715
0.032023353
0.03210297
0.032158616
0.032200114
0.032231224
0.032254166
0.032270743
0.032282326
0.032289953
0.032294589
0.032297476
0.032299071
0.032299071
0.032297476
0.032294589
0.032289953
0.032282326
0.032270743
0.032254166
0.032231224
0.032200114
0.032158616
0.03210297
0.032023353
0.031889715
0.031292274
0.029330267
0.027976871
0.030295163
0.031030187
0.031197123
0.031294926
0.031362616
0.031412703
0.031450027
0.031477467
0.031497251
0.031511059
0.031520138
0.031525647
0.031529073
0.031530965
0.031530965
0.031529073
0.031525647
0.031520138
0.031511059
0.031497251
0.031477467
0.031450027
0.031412703
0.031362616
0.031294926
0.031197123
0.031030187
0.030295163
0.02797687
0.02665527
0.029274353
0.030142237
0.030342674
0.030458255
0.030537454
0.030595595
0.030638638
0.030670167
0.030692841
0.030708636
0.030719
0.030725274
0.03072917
0.030731322
0.030731322
0.03072917
0.030725274
0.030719
0.030708636
0.030692841
0.030670167
0.030638638
0.030595595
0.030537454
0.030458255
0.030342674
0.030142237
0.029274353
0.026655269
0.025389841
0.028251576
0.029244042
0.02947755
0.029610141
0.029700066
0.02976555
0.029813695
0.029848809
0.029873983
0.029891478
0.029902927
0.029909837
0.02991412
0.029916488
0.029916488
0.02991412
0.029909837
0.029902927
0.029891478
0.029873983
0.029848809
0.029813695
0.02976555
0.029700066
0.029610141
0.02947755
0.029244041
0.028251576
0.02538984
0.024194522
0.027243689
0.028350261
0.028616002
0.028764641
0.028864385
0.028936419
0.028988988
0.029027144
0.0290544
0.029073285
0.029085604
0.02909301
0.029097593
0.02910013
0.02910013
0.029097593
0.02909301
0.029085604
0.029073285
0.0290544
0.029027144
0.028988988
0.028936419
0.028864385
0.028764641
0.028616002
0.028350261
0.027243689
0.024194521
0.023075614
0.026263033
0.027472184
0.027769086
0.027932748
0.028041371
0.028119146
0.02817546
0.028216114
0.028245031
0.028264997
0.02827797
0.028285734
0.028290529
0.028293189
0.028293189
0.028290529
0.028285734
0.02827797
0.028264997
0.028245031
0.028216114
0.02817546
0.028119146
0.028041371
0.027932747
0.027769086
0.027472184
0.026263033
0.023075613
0.022034163
0.025318043
0.026618084
0.02694498
0.027122665
0.027239269
0.027322009
0.027381421
0.027424049
0.027454226
0.027474975
0.027488395
0.027496384
0.027501307
0.027504043
0.027504043
0.027501307
0.027496384
0.027488395
0.027474975
0.027454226
0.027424049
0.027381421
0.027322009
0.027239269
0.027122665
0.02694498
0.026618084
0.025318043
0.022034162
0.02106776
0.024413955
0.025793677
0.026149403
0.026340198
0.026463964
0.026550957
0.026612872
0.026656993
0.026688057
0.026709312
0.026722984
0.026731073
0.026736044
0.026738814
0.026738814
0.026736044
0.026731073
0.026722984
0.026709312
0.026688057
0.026656993
0.026612872
0.026550957
0.026463963
0.026340198
0.026149403
0.025793677
0.024413955
0.02106776
0.02017183
0.023553493
0.025002586
0.025386056
0.025589166
0.025719379
0.025809996
0.025873884
0.025919065
0.025950677
0.025972183
0.025985927
0.025994
0.025998945
0.026001711
0.026001711
0.025998945
0.025994
0.025985927
0.025972183
0.025950677
0.025919065
0.025873884
0.025809996
0.025719379
0.025589166
0.025386056
0.025002586
0.023553493
0.020171829
0.019340512
0.022737472
0.024246777
0.024657036
0.024871797
0.025007861
0.025101561
0.025166964
0.025212821
0.025244677
0.025266203
0.025279857
0.025287807
0.025292658
0.025295381
0.025295381
0.025292658
0.025287807
0.025279857
0.025266203
0.025244677
0.025212821
0.025166964
0.025101561
0.025007861
0.024871797
0.024657036
0.024246777
0.022737472
0.019340511
0.018567376
0.021965295
0.023526948
0.023963195
0.024189081
0.024330516
0.024426848
0.024493379
0.024539581
0.024571412
0.024592753
0.024606167
0.024613895
0.024618588
0.024621235
0.024621235
0.024618588
0.024613895
0.024606167
0.024592753
0.024571412
0.024539581
0.024493379
0.024426848
0.024330516
0.024189081
0.023963195
0.023526948
0.021965295
0.018567375
0.017846089
0.021235384
0.022842848
0.02330445
0.023541064
0.023687504
0.023786104
0.023853444
0.023899709
0.023931283
0.023952253
0.023965292
0.023972708
0.023977185
0.023979723
0.023979723
0.023977185
0.023972708
0.023965292
0.023952253
0.023931283
0.023899709
0.023853444
0.023786104
0.023687504
0.023541064
0.02330445
0.022842848
0.021235383
0.017846088
0.01717086
0.020545508
0.022193523
0.022680024
0.022927091
0.023078275
0.02317886
0.023246755
0.023292848
0.023323964
0.0233444
0.023356943
0.023363964
0.023368171
0.023370569
0.023370569
0.023368171
0.023363964
0.023356943
0.0233444
0.023323964
0.023292848
0.023246755
0.02317886
0.023078275
0.022927091
0.022680024
0.022193523
0.020545508
0.017170859
0.016536672
0.01989305
0.02157752
0.022088641
0.022345993
0.022501757
0.022604119
0.022672375
0.022718105
0.022748592
0.022768353
0.02278029
0.022786838
0.022790724
0.022792957
0.022792957
0.022790724
0.022786838
0.02278029
0.022768353
0.022748592
0.022718105
0.022672375
0.022604119
0.022501757
0.022345993
0.022088641
0.02157752
0.01989305
0.016536672
0.015939342
0.01927519
0.020993026
0.02152867
0.021796234
0.0219565
0.022060497
0.022128974
0.02217419
0.022203909
0.02222287
0.022234103
0.02224011
0.022243629
0.022245668
0.022245668
0.022243629
0.02224011
0.022234104
0.02222287
0.022203909
0.02217419
0.022128974
0.022060497
0.0219565
0.021796234
0.02152867
0.020993026
0.01927519
0.015939341
0.015375458
0.018689043
0.02043799
0.02099823
0.021276022
0.021440781
0.021546334
0.021614939
0.021659529
0.021688367
0.021706424
0.021716867
0.021722268
0.021725376
0.021727199
0.021727199
0.021725376
0.021722268
0.021716867
0.021706424
0.021688367
0.021659529
0.021614939
0.021546334
0.021440781
0.021276022
0.02099823
0.02043799
0.018689043
0.015375457
0.014842261
0.018131749
0.019910197
0.020495272
0.020783384
0.020952684
0.021059765
0.021128454
0.021172338
0.02120021
0.021217276
0.021226855
0.021231593
0.021234253
0.021235836
0.021235836
0.021234253
0.021231593
0.021226855
0.021217276
0.02120021
0.021172338
0.021128454
0.021059765
0.020952684
0.020783384
0.020495272
0.019910197
0.018131749
0.01484226
0.014337484
0.017600532
0.019407336
0.020017633
0.020316234
0.02049017
0.020598791
0.020667559
0.020710693
0.020737537
0.020753544
0.020762196
0.020766222
0.020768398
0.020769723
0.020769723
0.020768398
0.020766222
0.020762196
0.020753544
0.020737537
0.020710693
0.020667559
0.020598791
0.02049017
0.020316234
0.020017633
0.019407336
0.017600532
0.014337483
0.013859207
0.017092732
0.018927036
0.01956308
0.019872406
0.020051111
0.020161317
0.020230194
0.020272564
0.020298343
0.020313241
0.020320916
0.020324188
0.020325849
0.020326896
0.020326896
0.020325849
0.020324188
0.020320916
0.020313241
0.020298343
0.020272564
0.020230194
0.020161317
0.020051111
0.019872406
0.01956308
0.018927036
0.017092732
0.013859207
0.013405724
0.016605825
0.018466898
0.019129331
0.01944969
0.019633323
0.019745183
0.019814229
0.019855847
0.019880549
0.019894305
0.019900968
0.019903451
0.019904568
0.019905321
0.019905321
0.019904568
0.019903451
0.019900968
0.019894305
0.019880549
0.019855847
0.019814229
0.019745183
0.019633323
0.01944969
0.019129331
0.018466898
0.016605825
0.013405724
0.01297545
0.016137449
0.01802452
0.018714077
0.019045845
0.019234592
0.019348187
0.019417482
0.019458388
0.019482023
0.019494625
0.019500255
0.01950192
0.019502468
0.019502911
0.019502911
0.019502468
0.01950192
0.019500255
0.019494625
0.019482023
0.019458388
0.019417482
0.019348187
0.019234592
0.019045845
0.018714077
0.01802452
0.016137448
0.012975449
0.01256685
0.015685425
0.017597538
0.018314999
0.018658621
0.018852685
0.018968105
0.019037742
0.019077996
0.019100599
0.019112053
0.019116642
0.019117469
0.019117425
0.019117544
0.019117544
0.019117425
0.019117469
0.019116642
0.019112053
0.019100599
0.019077996
0.019037742
0.018968105
0.018852685
0.018658621
0.018314999
0.017597538
0.015685424
0.012566849
0.012178393
0.015247778
0.017183676
0.017929805
0.018285779
0.018485374
0.018602706
0.01867278
0.018712456
0.018734082
0.018744413
0.018747973
0.018747952
0.018747295
0.018747078
0.018747078
0.018747295
0.018747952
0.018747973
0.018744413
0.018734082
0.018712456
0.01867278
0.018602706
0.018485374
0.018285779
0.017929805
0.017183676
0.015247778
0.012178392
0.011808526
0.014822748
0.016780794
0.017556273
0.017925132
0.018130475
0.018249797
0.018320395
0.018359566
0.018380283
0.018389537
0.018392094
0.018391223
0.018389938
0.018389376
0.018389376
0.018389938
0.018391223
0.018392094
0.018389537
0.018380283
0.018359566
0.018320395
0.018249797
0.018130475
0.017925132
0.017556273
0.016780794
0.014822748
0.011808526
0.011455683
0.014408785
0.016386934
0.017192304
0.017574593
0.017785892
0.017907267
0.01797846
0.018017193
0.018037076
0.018045311
0.018046906
0.018045195
0.018043267
0.018042351
0.018042351
0.018043267
0.018045195
0.018046906
0.018045311
0.018037076
0.018017193
0.01797846
0.017907267
0.017785892
0.017574593
0.017192304
0.016386934
0.014408785
0.011455683
0.011118301
0.014004551
0.01600036
0.016835959
0.017232213
0.017449663
0.017573135
0.01764497
0.017683323
0.017702446
0.017709729
0.017710413
0.017707882
0.017705301
0.017704025
0.017704025
0.017705301
0.017707882
0.017710413
0.017709729
0.017702446
0.017683323
0.01764497
0.017573135
0.017449663
0.017232213
0.016835959
0.01600036
0.014004551
0.011118301
0.010794847
0.013608902
0.015619587
0.016485506
0.016896223
0.017119998
0.017245589
0.017318091
0.017356105
0.017374538
0.017380941
0.017380778
0.017377457
0.017374217
0.017372578
0.017372578
0.017374217
0.017377457
0.017380778
0.017380941
0.017374538
0.017356105
0.017318091
0.017245589
0.017119998
0.016896223
0.016485506
0.015619586
0.013608902
0.010794847
0.010483848
0.013220879
0.015243398
0.01613945
0.016565073
0.01679532
0.016923034
0.0169962
0.017033899
0.017051703
0.017057301
0.017056361
0.017052291
0.017048392
0.017046392
0.017046392
0.017048392
0.017052291
0.017056361
0.017057301
0.017051703
0.017033899
0.0169962
0.016923034
0.01679532
0.016565073
0.01613945
0.015243398
0.013220878
0.010483847
0.010183916
0.012839679
0.014870853
0.01579656
0.016237453
0.016474288
0.016604112
0.016677917
0.016715309
0.016732535
0.0167374
0.01673576
0.016730989
0.01672644
0.016724079
0.016724079
0.01672644
0.016730989
0.01673576
0.0167374
0.016732535
0.016715309
0.016677917
0.016604112
0.016474288
0.016237453
0.01579656
0.014870853
0.012839679
0.010183916
0.0098937892
0.012464648
0.014501278
0.015455877
0.015912313
0.016155821
0.016287732
0.016362129
0.016399205
0.016415893
0.016420096
0.016417833
0.016412418
0.016407235
0.016404517
0.016404517
0.016407235
0.016412418
0.016417833
0.016420096
0.016415893
0.016399205
0.016362129
0.016287732
0.016155821
0.015912313
0.015455877
0.014501278
0.012464647
0.009893789
0.0096123703
0.012095266
0.014134259
0.015116724
0.015588872
0.015839109
0.015973077
0.016048006
0.016084745
0.016100924
0.016104529
0.016101722
0.016095725
0.016089929
0.016086857
0.016086857
0.016089929
0.016095725
0.016101722
0.016104529
0.016100924
0.016084745
0.016048006
0.015973077
0.015839109
0.015588872
0.015116724
0.014134259
0.012095265
0.0096123702
0.0093387559
0.011731134
0.013769608
0.014778684
0.015266609
0.015523601
0.015659596
0.015734988
0.015771364
0.015787055
0.015790119
0.015786843
0.01578033
0.015773946
0.015770524
0.015770524
0.015773946
0.01578033
0.015786843
0.015790119
0.015787055
0.015771364
0.015734988
0.015659596
0.015523601
0.015266609
0.014778684
0.013769608
0.011731134
0.0093387558
0.0090722928
0.01137197
0.013407338
0.01444159
0.014945247
0.015208993
0.015346991
0.01542278
0.015458768
0.015473982
0.015476555
0.01547288
0.015465914
0.015458973
0.015455203
0.015455203
0.015458973
0.015465914
0.01547288
0.015476555
0.015473982
0.015458768
0.015422781
0.015346991
0.015208993
0.014945247
0.01444159
0.013407337
0.01137197
0.0090722927
0.0088126083
0.011017619
0.013047632
0.014105491
0.014624732
0.014895207
0.015035198
0.015111324
0.015146902
0.015161649
0.015163775
0.015159761
0.015152402
0.015144936
0.015140824
0.015140824
0.015144936
0.015152402
0.015159761
0.015163775
0.015161649
0.015146902
0.015111324
0.015035198
0.014895207
0.014624732
0.014105491
0.013047632
0.011017619
0.0088126083
0.0085596472
0.010668055
0.012690813
0.013770618
0.0143052
0.014582364
0.014724347
0.014800765
0.014835922
0.014850211
0.014851927
0.014847628
0.01483993
0.014831974
0.014827524
0.014827524
0.014831974
0.01483993
0.014847628
0.014851927
0.014850211
0.014835922
0.014800765
0.014724347
0.014582364
0.0143052
0.013770618
0.012690813
0.010668054
0.0085596472
0.0083136979
0.010323399
0.012337319
0.013437355
0.013986948
0.014270747
0.014414741
0.014491418
0.014526154
0.014539997
0.014541341
0.014536802
0.014528814
0.0145204
0.01451562
0.01451562
0.014520401
0.014528814
0.014536802
0.014541341
0.014539997
0.014526154
0.014491418
0.014414741
0.014270747
0.013986948
0.013437355
0.012337319
0.010323398
0.0083136979
0.0080754284
0.0099839488
0.011987698
0.013106217
0.013670412
0.013960779
0.014106817
0.014183741
0.01421807
0.014231483
0.01423249
0.014227749
0.014219513
0.014210678
0.014205575
0.014205575
0.014210678
0.014219513
0.014227749
0.01423249
0.014231483
0.01421807
0.014183741
0.014106817
0.013960779
0.013670412
0.013106217
0.011987698
0.0099839485
0.0080754285
0.0078458888
0.0096502008
0.011642593
0.012777823
0.013356124
0.013652982
0.01380111
0.013878288
0.013912245
0.01392525
0.013925953
0.013921045
0.013912599
0.013903377
0.013897961
0.013897961
0.013903377
0.013912599
0.013921045
0.013925953
0.01392525
0.013912245
0.013878288
0.013801111
0.013652982
0.013356124
0.012777823
0.011642593
0.0096502005
0.007845889
0.0076265194
0.0093228791
0.011302746
0.012452879
0.01304471
0.013347966
0.013498243
0.013575701
0.013609327
0.013621958
0.013622393
0.013617346
0.013608722
0.013599149
0.013593435
0.013593435
0.013599149
0.013608722
0.013617346
0.013622393
0.013621958
0.013609327
0.013575701
0.013498243
0.013347966
0.01304471
0.012452879
0.011302746
0.0093228789
0.0076265196
0.007419147
0.0090029702
0.010969011
0.012132172
0.012736876
0.013046418
0.013198905
0.013276685
0.013310033
0.013322326
0.013322533
0.013317372
0.013308599
0.013298711
0.013292715
0.013292715
0.013298711
0.013308599
0.013317372
0.013322533
0.013322326
0.013310033
0.013276685
0.013198905
0.013046418
0.012736876
0.012132172
0.010969011
0.0090029699
0.0074191472
0.0072259629
0.0086917076
0.01064236
0.011816576
0.012433395
0.012749077
0.012903834
0.012981992
0.013015126
0.01302712
0.013027135
0.013021886
0.01301299
0.013002824
0.012996565
0.012996565
0.013002824
0.01301299
0.013021886
0.013027135
0.01302712
0.013015127
0.012981992
0.012903834
0.012749077
0.012433395
0.011816576
0.01064236
0.0086917073
0.0072259632
0.0070495025
0.0083905978
0.010323906
0.011507059
0.012135111
0.01245674
0.012613815
0.012692412
0.012725405
0.012737144
0.012737002
0.01273169
0.012722696
0.012712288
0.012705788
0.012705788
0.012712288
0.012722696
0.01273169
0.012737002
0.012737144
0.012725405
0.012692412
0.012613816
0.01245674
0.012135111
0.011507059
0.010323906
0.0083905975
0.0070495029
0.0068926148
0.0081014371
0.010014926
0.011204696
0.011842945
0.012170264
0.012329683
0.012408782
0.012441708
0.012453243
0.01245298
0.012447622
0.012438559
0.012427947
0.012421231
0.012421231
0.012427948
0.012438559
0.012447622
0.01245298
0.012453244
0.012441708
0.012408782
0.012329683
0.012170264
0.011842945
0.011204696
0.010014926
0.0081014368
0.0068926152
0.0067584182
0.0078263044
0.0097168722
0.010910685
0.011557907
0.011890571
0.012052324
0.012131983
0.012164918
0.012176303
0.012175954
0.012170569
0.012161457
0.012150681
0.012143774
0.012143774
0.012150681
0.012161457
0.012170569
0.012175954
0.012176303
0.012164918
0.012131983
0.012052324
0.011890572
0.011557907
0.010910685
0.0097168721
0.0078263042
0.0067584186
0.0066502627
0.0075675565
0.0094313826
0.010626362
0.011281111
0.011618666
0.011782693
0.011862954
0.01189597
0.011907259
0.011906864
0.011901471
0.011892333
0.011881432
0.011874365
0.011874365
0.011881432
0.011892333
0.011901471
0.011906864
0.011907259
0.01189597
0.011862954
0.011782693
0.011618666
0.011281111
0.010626362
0.0094313825
0.0075675563
0.0066502632
0.0065716913
0.0073278012
0.0091602913
0.010353224
0.011013798
0.011355651
0.011521827
0.011602712
0.011635872
0.01164712
0.011646719
0.011641338
0.011632199
0.011621214
0.011614019
0.011614019
0.011621214
0.011632199
0.011641338
0.011646719
0.01164712
0.011635872
0.011602712
0.011521827
0.011355651
0.011013798
0.010353224
0.0091602912
0.007327801
0.0065716919
0.0065264022
0.0071098007
0.0089056183
0.010092938
0.010757348
0.011102742
0.011270861
0.011352358
0.011385711
0.01139697
0.011396603
0.011391259
0.011382145
0.011371119
0.01136383
0.01136383
0.011371119
0.011382145
0.011391259
0.011396603
0.01139697
0.011385711
0.011352358
0.011270861
0.011102742
0.010757348
0.010092938
0.0089056183
0.0071098005
0.0065264029
0.0065182383
0.0069164423
0.0086695594
0.0098473438
0.010513293
0.010861283
0.011031041
0.011113096
0.011146673
0.011157988
0.011157695
0.011152416
0.011143357
0.011132336
0.011124989
0.011124989
0.011132336
0.011143357
0.011152416
0.011157695
0.011157988
0.011146673
0.011113096
0.011031041
0.010861283
0.010513293
0.0098473438
0.0086695593
0.0069164421
0.006518239
0.0065511934
0.0067507117
0.0084544662
0.0096184618
0.010283338
0.010632767
0.010803745
0.010886251
0.010920058
0.010931464
0.010931283
0.010926099
0.010917131
0.010906161
0.010898794
0.010898794
0.010906161
0.010917131
0.010926099
0.010931283
0.010931464
0.010920058
0.010886251
0.010803745
0.010632767
0.010283338
0.0096184618
0.0084544661
0.0067507115
0.0065511942
0.0066294349
0.006615628
0.0082628149
0.0094084847
0.010069357
0.010418841
0.010590489
0.010673276
0.010707287
0.010718809
0.010718773
0.010713715
0.010704874
0.010694007
0.010686658
0.010686658
0.010694007
0.010704874
0.010713715
0.010718773
0.010718809
0.010707287
0.010673276
0.01059049
0.010418841
0.010069357
0.0094084847
0.0082628149
0.0066156279
0.0066294358
0.0067573497
0.0065142178
0.0080971785
0.0092197658
0.0098734023
0.010221313
0.010392939
0.010475761
0.010509914
0.01052156
0.010521696
0.010516795
0.010508121
0.010497407
0.010490117
0.010490117
0.010497407
0.010508121
0.010516795
0.010521696
0.01052156
0.010509914
0.010475761
0.010392939
0.010221313
0.0098734023
0.0092197658
0.0080971785
0.0065142177
0.0067573507
0.006939602
0.0064495058
0.0079602031
0.0090548015
0.0096976991
0.010042164
0.010212913
0.010295441
0.010329631
0.010341387
0.010341715
0.010337002
0.010328536
0.010318026
0.010310834
0.010310834
0.010318026
0.010328536
0.010337002
0.010341715
0.010341387
0.010329631
0.010295442
0.010212913
0.010042164
0.0096976992
0.0090548015
0.0079602031
0.0064495057
0.0069396031
0.0071812044
0.0064245283
0.007854577
0.008916206
0.0095446326
0.0098835328
0.010052388
0.010134198
0.010168266
0.010180097
0.010180624
0.010176126
0.010167908
0.010157655
0.0101506
0.0101506
0.010157655
0.010167908
0.010176126
0.010180624
0.010180097
0.010168266
0.010134198
0.010052388
0.0098835329
0.0095446327
0.008916206
0.007854577
0.0064245282
0.0071812056
0.0074875906
0.0064423617
0.0077830193
0.0088066932
0.009416738
0.0097477212
0.0099134912
0.0099940535
0.010027788
0.010039628
0.010040348
0.010036085
0.010028155
0.010018207
0.010011327
0.010011327
0.010018207
0.010028155
0.010036085
0.010040348
0.010039628
0.010027788
0.0099940536
0.0099134913
0.0097477213
0.009416738
0.0088066932
0.0077830192
0.0064423616
0.007487592
0.0078646812
0.0065061731
0.0077482775
0.0087290592
0.0093166878
0.0096371826
0.0097984993
0.0098771756
0.009910299
0.009922047
0.009922938
0.0099189239
0.0099113169
0.0099017214
0.0098950511
0.0098950511
0.0099017214
0.0099113169
0.009918924
0.009922938
0.0099220471
0.0099102991
0.0098771756
0.0097984993
0.0096371826
0.0093166878
0.0087290592
0.0077482774
0.006506173
0.0078646828
0.0083189236
0.0066192828
0.0077531334
0.0086861666
0.0092472755
0.0095545123
0.0097098313
0.0097858648
0.0098180304
0.0098295477
0.0098305646
0.0098268028
0.0098195489
0.0098103472
0.0098039188
0.0098039188
0.0098103472
0.0098195489
0.0098268028
0.0098305646
0.0098295478
0.0098180304
0.0097858648
0.0097098313
0.0095545123
0.0092472755
0.0086861666
0.0077531333
0.0066192828
0.0083189254
0.0088574066
0.0067852338
0.0078004218
0.0086809408
0.0092114052
0.0095024402
0.0096500427
0.0097225536
0.0097533383
0.0097644418
0.0097655151
0.0097619958
0.0097551174
0.0097463451
0.0097401864
0.0097401864
0.0097463451
0.0097551174
0.0097619959
0.0097655151
0.0097644418
0.0097533384
0.0097225536
0.0096500427
0.0095024402
0.0092114053
0.0086809408
0.0078004217
0.0067852338
0.0088574086
0.0094878773
0.00700786
0.0078930593
0.0087163702
0.0092120841
0.0094838235
0.0096218208
0.0096898016
0.0097187005
0.0097291574
0.0097301887
0.0097268863
0.0097203959
0.0097120804
0.0097062147
0.0097062147
0.0097120804
0.0097203959
0.0097268863
0.0097301887
0.0097291575
0.0097187006
0.0096898016
0.0096218208
0.0094838236
0.0092120841
0.0087163702
0.0078930592
0.00700786
0.0094878795
0.010218791
0.007291353
0.0080340808
0.0087955149
0.0092524187
0.0095016417
0.0096279797
0.0096902919
0.0097167123
0.009726235
0.009727093
0.0097239624
0.0097178602
0.0097100203
0.0097044653
0.0097044653
0.0097100203
0.0097178602
0.0097239624
0.009727093
0.009726235
0.0097167123
0.0096902919
0.0096279797
0.0095016417
0.0092524187
0.0087955149
0.0080340808
0.0072913531
0.010218793
0.011059332
0.0076403237
0.0082266786
0.0089215237
0.0093356196
0.0095589979
0.0096714618
0.0097268318
0.0097500874
0.0097583279
0.0097588446
0.0097558185
0.00975009
0.0097427338
0.0097375013
0.0097375013
0.0097427338
0.00975009
0.0097558185
0.0097588446
0.009758328
0.0097500874
0.0097268318
0.0096714619
0.0095589979
0.0093356196
0.0089215236
0.0082266785
0.0076403238
0.011059334
0.012019419
0.0080602462
0.0084742438
0.0090976526
0.0094650077
0.0096591219
0.0097553409
0.0098023558
0.0098216612
0.0098282058
0.0098281722
0.0098251571
0.0098197706
0.0098128946
0.0098079896
0.0098079896
0.0098128946
0.0098197706
0.0098251571
0.0098281723
0.0098282059
0.0098216612
0.0098023558
0.0097553409
0.0096591219
0.0094650077
0.0090976526
0.0084742437
0.0080602463
0.012019422
0.013109704
0.0085574993
0.0087804099
0.0093272911
0.0096440278
0.0098053787
0.0098828291
0.0099199329
0.0099343973
0.0099387612
0.0099379225
0.0099347953
0.0099296994
0.0099232871
0.0099187076
0.0099187076
0.0099232871
0.0099296994
0.0099347953
0.0099379225
0.0099387612
0.0099343973
0.0099199329
0.0098828291
0.0098053787
0.0096440278
0.0093272911
0.0087804098
0.0085574994
0.013109707
0.014341511
0.0091382087
0.0091490741
0.0096139816
0.0098762615
0.010001278
0.010057286
0.010082775
0.010091396
0.010093017
0.010091068
0.010087673
0.010082795
0.010076815
0.010072552
0.010072552
0.010076815
0.010082795
0.010087673
0.010091068
0.010093017
0.010091396
0.010082775
0.010057286
0.010001278
0.0098762615
0.0096139815
0.009149074
0.0091382089
0.014341515
0.015726767
0.0098089754
0.0095844138
0.009961434
0.010165438
0.010250483
0.010282225
0.010294245
0.0102959
0.010294134
0.010290713
0.010286858
0.0102821
0.010276508
0.010272542
0.010272542
0.010276508
0.0102821
0.010286858
0.010290713
0.010294134
0.0102959
0.010294245
0.010282225
0.010250483
0.010165438
0.0099614339
0.0095844136
0.0098089756
0.015726771
0.017277882
0.010576949
0.010090913
0.010373551
0.01051545
0.010556821
0.010561326
0.010557864
0.010551309
0.01054542
0.010540107
0.010535559
0.010530799
0.010525531
0.010521837
0.010521837
0.010525531
0.010530799
0.010535559
0.010540107
0.01054542
0.010551309
0.010557864
0.010561326
0.010556821
0.01051545
0.010373551
0.010090913
0.010576949
0.017277887
0.01900737
0.011449855
0.010673368
0.010854442
0.010930364
0.010924298
0.010898447
0.010877334
0.010861192
0.01085035
0.010842658
0.010837142
0.010832228
0.010827204
0.010823747
0.010823747
0.010827204
0.010832228
0.010837142
0.010842658
0.01085035
0.010861192
0.010877334
0.010898447
0.010924298
0.010930364
0.010854442
0.010673368
0.011449856
0.019007375
0.020928051
0.012436023
0.011336887
0.01140842
0.011414429
0.011357103
0.011297639
0.011256544
0.011229302
0.011212574
0.011201947
0.01119514
0.01118989
0.011185011
0.011181745
0.011181745
0.011185011
0.01118989
0.01119514
0.011201947
0.011212574
0.011229302
0.011256544
0.011297639
0.011357103
0.011414429
0.01140842
0.011336887
0.012436024
0.020928057
0.023052567
0.013544424
0.012086929
0.012040006
0.011972089
0.011859626
0.011763154
0.011699581
0.011659584
0.011635932
0.011621736
0.011613264
0.011607461
0.011602606
0.011599477
0.011599477
0.011602606
0.011607461
0.011613264
0.011621736
0.011635932
0.011659584
0.011699581
0.011763154
0.011859626
0.011972089
0.012040006
0.012086929
0.013544424
0.023052574
0.025392962
0.014784682
0.012929295
0.012753925
0.012607965
0.012436447
0.01229944
0.012210728
0.012156174
0.012124443
0.012105966
0.012095397
0.012088788
0.012083815
0.012080758
0.012080758
0.012083815
0.012088788
0.012095397
0.012105966
0.012124443
0.012156174
0.012210728
0.01229944
0.012436447
0.012607964
0.012753925
0.012929295
0.014784683
0.025392969
0.027960157
0.016167074
0.013870107
0.013555082
0.013326836
0.013092318
0.012911125
0.012794451
0.012723387
0.012682306
0.012658747
0.012645593
0.012637885
0.012632628
0.012629565
0.012629565
0.012632628
0.012637885
0.012645593
0.012658747
0.012682306
0.012723387
0.012794451
0.012911125
0.013092318
0.013326836
0.013555082
0.013870106
0.016167075
0.027960165
0.030763354
0.017702533
0.014915783
0.014448553
0.014133624
0.013832154
0.013603017
0.013455399
0.013365722
0.013313897
0.013284367
0.013268073
0.013258932
0.013253198
0.013250041
0.013250041
0.013253198
0.013258932
0.013268073
0.013284367
0.013313897
0.013365722
0.013455399
0.013603017
0.013832153
0.014133623
0.014448553
0.014915783
0.017702534
0.030763363
0.033809333
0.019402581
0.016073061
0.015439559
0.015033368
0.014661006
0.014380081
0.014198388
0.014087845
0.014023755
0.01398727
0.013967217
0.013956264
0.013949834
0.013946481
0.013946481
0.013949834
0.013956264
0.013967217
0.01398727
0.014023755
0.014087845
0.014198388
0.014380081
0.014661005
0.015033367
0.015439559
0.016073061
0.019402582
0.033809342
0.03710202
0.021279201
0.017349
0.016533435
0.016031188
0.01558403
0.01524741
0.015028379
0.01489457
0.014816572
0.014772052
0.014747549
0.014734357
0.014726984
0.01472332
0.01472332
0.014726984
0.014734357
0.014747549
0.014772052
0.014816572
0.01489457
0.015028379
0.01524741
0.01558403
0.016031187
0.016533435
0.017349
0.021279202
0.037102031
0.040641519
0.023344685
0.018751017
0.017735625
0.017132264
0.016606467
0.016210219
0.01595047
0.015790856
0.015697179
0.015643445
0.015613732
0.015597825
0.01558923
0.015585124
0.015585124
0.01558923
0.015597825
0.015613732
0.015643445
0.015697179
0.015790856
0.01595047
0.016210218
0.016606467
0.017132263
0.017735624
0.018751017
0.023344686
0.04064153
0.044423299
0.02561137
0.02028689
0.019051655
0.018341794
0.017733595
0.017273793
0.01696985
0.016781761
0.016670512
0.016606285
0.016570526
0.016551377
0.016541251
0.016536559
0.016536559
0.016541251
0.016551377
0.016570526
0.016606285
0.016670512
0.016781761
0.01696985
0.017273793
0.017733594
0.018341794
0.019051654
0.020286889
0.025611372
0.044423312
0.048437788
0.028091116
0.021964747
0.020487105
0.019664947
0.018970684
0.018443444
0.018091754
0.017872399
0.017741565
0.017665469
0.017622754
0.017599785