/*--------------------------------*- C++ -*----------------------------------*\
  =========                 |
  \\      /  F ield         | OpenFOAM: The Open Source CFD Toolbox
   \\    /   O peration     | Website:  https://openfoam.org
    \\  /    A nd           | Version:  8
     \\/     M anipulation  |
\*---------------------------------------------------------------------------*/
/*   Windows 32 and 64 bit porting by blueCAPE: http://www.bluecape.com.pt   *\
|  Based on Windows porting (2.0.x v4) by Symscape: http://www.symscape.com   |
\*---------------------------------------------------------------------------*/
FoamFile
{
    version     2.0;
    format      ascii;
    class       volScalarField;
    location    "60";
    object      p;
}
// * * * * * * * * * * * * * * * * * * * * * * * * * * * * * * * * * * * * * //

dimensions      [1 -1 -2 0 0 0 0];

internalField   nonuniform List<scalar> 
283500
(
8205.073
8196.0865
8193.1932
8191.219
8190.0472
8189.2913
8188.7919
8188.4545
8188.2232
8188.0633
8187.9526
8187.8768
8187.8267
8187.7961
8187.7816
8187.7816
8187.7961
8187.8267
8187.8768
8187.9526
8188.0633
8188.2232
8188.4545
8188.7919
8189.2913
8190.0472
8191.219
8193.1932
8196.0865
8205.073
8190.263
8186.4399
8184.9255
8183.2447
8182.1838
8181.4471
8180.9434
8180.595
8180.3525
8180.1833
8180.0652
8179.984
8179.93
8179.8969
8179.8813
8179.8813
8179.8969
8179.93
8179.984
8180.0652
8180.1833
8180.3525
8180.595
8180.9434
8181.4471
8182.1838
8183.2447
8184.9255
8186.4399
8190.263
8182.7914
8181.059
8180.2911
8178.889
8177.9721
8177.2518
8176.7302
8176.3537
8176.0842
8175.8921
8175.756
8175.6614
8175.598
8175.559
8175.5404
8175.5404
8175.559
8175.598
8175.6614
8175.756
8175.8921
8176.0842
8176.3537
8176.7302
8177.2518
8177.9721
8178.889
8180.2911
8181.059
8182.7914
8182.3933
8180.8469
8180.0086
8178.6317
8177.7358
8176.9692
8176.3962
8175.9684
8175.6538
8175.4241
8175.2587
8175.1422
8175.0634
8175.0146
8174.9913
8174.9913
8175.0146
8175.0634
8175.1422
8175.2587
8175.4241
8175.6538
8175.9684
8176.3962
8176.9692
8177.7358
8178.6317
8180.0086
8180.8469
8182.3933
8184.2568
8182.6547
8181.6108
8180.1246
8179.1369
8178.259
8177.5965
8177.0901
8176.7111
8176.4302
8176.2253
8176.0791
8175.9791
8175.9169
8175.8871
8175.8871
8175.9169
8175.9791
8176.0791
8176.2253
8176.4302
8176.7111
8177.0901
8177.5965
8178.259
8179.1369
8180.1246
8181.6108
8182.6547
8184.2568
8186.3222
8184.7984
8183.6739
8182.0873
8180.9849
8179.9766
8179.2058
8178.6022
8178.1428
8177.7978
8177.5431
8177.3596
8177.2333
8177.1543
8177.1163
8177.1163
8177.1543
8177.2333
8177.3596
8177.5431
8177.7978
8178.1428
8178.6022
8179.2058
8179.9766
8180.9849
8182.0873
8183.6739
8184.7984
8186.3222
8188.4254
8187.0344
8185.9088
8184.2605
8183.0633
8181.932
8181.0506
8180.343
8179.7956
8179.3782
8179.0662
8178.8393
8178.6821
8178.5833
8178.5356
8178.5356
8178.5833
8178.6821
8178.8393
8179.0662
8179.3782
8179.7956
8180.343
8181.0506
8181.932
8183.0633
8184.2605
8185.9088
8187.0344
8188.4254
8190.6776
8189.4265
8188.3315
8186.6505
8185.3821
8184.1394
8183.1495
8182.3347
8181.6939
8181.1975
8180.8219
8180.5462
8180.3537
8180.2321
8180.1732
8180.1732
8180.2321
8180.3537
8180.5462
8180.8219
8181.1975
8181.6939
8182.3347
8183.1495
8184.1394
8185.3821
8186.6505
8188.3315
8189.4265
8190.6776
8193.0345
8191.9361
8190.8976
8189.2137
8187.8991
8186.5599
8185.4675
8184.5452
8183.8075
8183.2268
8182.7819
8182.4519
8182.2198
8182.0724
8182.0008
8182.0008
8182.0724
8182.2198
8182.4519
8182.7819
8183.2268
8183.8075
8184.5452
8185.4675
8186.5599
8187.8991
8189.2137
8190.8976
8191.9361
8193.0345
8195.4071
8194.4755
8193.5176
8191.8674
8190.5387
8189.125
8187.943
8186.9178
8186.0829
8185.4145
8184.8957
8184.5069
8184.2313
8184.0553
8183.9695
8183.9695
8184.0553
8184.2313
8184.5069
8184.8957
8185.4145
8186.0829
8186.9178
8187.943
8189.125
8190.5387
8191.8674
8193.5176
8194.4755
8195.4071
8197.7506
8196.9881
8196.1272
8194.5463
8193.2378
8191.7779
8190.5255
8189.4077
8188.4797
8187.7235
8187.1287
8186.6777
8186.3556
8186.1487
8186.0474
8186.0474
8186.1487
8186.3556
8186.6777
8187.1287
8187.7235
8188.4797
8189.4077
8190.5255
8191.7779
8193.2378
8194.5463
8196.1272
8196.9881
8197.7506
8200.0612
8199.4543
8198.6973
8197.2148
8195.9581
8194.4822
8193.183
8191.9878
8190.9752
8190.1344
8189.4637
8188.9492
8188.5784
8188.3389
8188.2213
8188.2213
8188.3389
8188.5784
8188.9492
8189.4637
8190.1344
8190.9752
8191.9878
8193.183
8194.4822
8195.9581
8197.2148
8198.6973
8199.4543
8200.0612
8202.3504
8201.8761
8201.2179
8199.8546
8198.6761
8197.2138
8195.894
8194.6403
8193.5555
8192.6367
8191.8928
8191.3151
8190.8951
8190.6221
8190.4875
8190.4875
8190.6221
8190.8951
8191.3151
8191.8928
8192.6367
8193.5555
8194.6403
8195.894
8197.2138
8198.6761
8199.8546
8201.2179
8201.8761
8202.3504
8204.6311
8204.2623
8203.6891
8202.4563
8201.3757
8199.9543
8198.6407
8197.3505
8196.2095
8195.2226
8194.4111
8193.7729
8193.3044
8192.9979
8192.8463
8192.8463
8192.9979
8193.3044
8193.7729
8194.4111
8195.2226
8196.2095
8197.3505
8198.6407
8199.9543
8201.3757
8202.4563
8203.6891
8204.2623
8204.6311
8206.9149
8206.6233
8206.1174
8205.0172
8204.046
8202.6891
8201.4081
8200.1052
8198.9268
8197.8852
8197.0146
8196.3207
8195.8063
8195.4675
8195.2992
8195.2992
8195.4675
8195.8063
8196.3207
8197.0146
8197.8852
8198.9268
8200.1052
8201.4081
8202.6891
8204.046
8205.0172
8206.1174
8206.6233
8206.9149
8209.2127
8208.9707
8208.5131
8207.5396
8206.6815
8205.4079
8204.1836
8202.8923
8201.6978
8200.6174
8199.6993
8198.9571
8198.4013
8198.0325
8197.8486
8197.8486
8198.0325
8198.4013
8198.9571
8199.6993
8200.6174
8201.6978
8202.8923
8204.1836
8205.4079
8206.6815
8207.5396
8208.5131
8208.9707
8209.2127
8211.5353
8211.317
8210.8882
8210.0288
8209.2809
8208.1048
8206.9578
8205.7013
8204.5129
8203.4124
8202.4608
8201.6802
8201.0894
8200.6945
8200.4968
8200.4968
8200.6945
8201.0894
8201.6802
8202.4608
8203.4124
8204.5129
8205.7013
8206.9578
8208.1048
8209.2809
8210.0288
8210.8882
8211.317
8211.5353
8213.8894
8213.6736
8213.255
8212.4932
8211.8472
8210.7768
8209.7232
8208.5227
8207.3629
8206.2624
8205.2939
8204.4872
8203.8697
8203.4539
8203.2448
8203.2448
8203.4539
8203.8697
8204.4872
8205.2939
8206.2624
8207.3629
8208.5227
8209.7232
8210.7768
8211.8472
8212.4932
8213.255
8213.6736
8213.8894
8216.2768
8216.05
8215.6253
8214.9428
8214.3859
8213.4235
8212.4746
8211.3485
8210.2391
8209.1595
8208.1922
8207.3736
8206.7399
8206.3097
8206.0924
8206.0924
8206.3097
8206.7399
8207.3736
8208.1922
8209.1595
8210.2391
8211.3485
8212.4746
8213.4235
8214.3859
8214.9428
8215.6253
8216.05
8216.2768
8218.6953
8218.4534
8218.01
8217.3878
8216.9046
8216.0472
8215.2093
8214.1731
8213.1337
8212.0958
8211.1489
8210.3343
8209.6962
8209.2593
8209.0378
8209.0378
8209.2593
8209.6962
8210.3343
8211.1489
8212.0958
8213.1337
8214.1731
8215.2093
8216.0472
8216.9046
8217.3878
8218.01
8218.4534
8218.6953
8221.1429
8220.8897
8220.4188
8219.8394
8219.4132
8218.6539
8217.9282
8216.9934
8216.0412
8215.0644
8214.1572
8213.3634
8212.734
8212.2993
8212.0779
8212.0779
8212.2993
8212.734
8213.3634
8214.1572
8215.0644
8216.0412
8216.9934
8217.9282
8218.6539
8219.4132
8219.8394
8220.4188
8220.8897
8221.1429
8223.6187
8223.3636
8222.8601
8222.3089
8221.9231
8221.2521
8220.6353
8219.8091
8218.9581
8218.0599
8217.2111
8216.4551
8215.8482
8215.4253
8215.2089
8215.2089
8215.4253
8215.8482
8216.4551
8217.2111
8218.0599
8218.9581
8219.8091
8220.6353
8221.2521
8221.9231
8222.3089
8222.8601
8223.3636
8223.6187
8226.1231
8225.8787
8225.3408
8224.807
8224.4462
8223.8518
8223.3366
8222.622
8221.8826
8221.0779
8220.3047
8219.6031
8219.0327
8218.6316
8218.4253
8218.4253
8218.6316
8219.0327
8219.6031
8220.3047
8221.0779
8221.8826
8222.622
8223.3366
8223.8518
8224.4462
8224.807
8225.3408
8225.8787
8226.1231
8228.6561
8228.4373
8227.8656
8227.3424
8226.9937
8226.4633
8226.0399
8225.4357
8224.8141
8224.1151
8223.4324
8222.8006
8222.2803
8221.9107
8221.7197
8221.7197
8221.9107
8222.2803
8222.8006
8223.4324
8224.1151
8224.8141
8225.4357
8226.0399
8226.4633
8226.9937
8227.3424
8227.8656
8228.4373
8228.6561
8231.2178
8231.0412
8230.4378
8229.9227
8229.5756
8229.0972
8228.7537
8228.2551
8227.7534
8227.1687
8226.589
8226.0405
8225.5827
8225.254
8225.0833
8225.0833
8225.254
8225.5827
8226.0405
8226.589
8227.1687
8227.7534
8228.2551
8228.7537
8229.0972
8229.5756
8229.9227
8230.4378
8231.0412
8231.2178
8233.8134
8233.6937
8233.0607
8232.5541
8232.201
8231.7637
8231.4876
8231.0866
8230.7029
8230.2375
8229.7697
8229.3155
8228.931
8228.6514
8228.5054
8228.5054
8228.6514
8228.931
8229.3155
8229.7697
8230.2375
8230.7029
8231.0866
8231.4876
8231.7637
8232.201
8232.5541
8233.0607
8233.6937
8233.8134
8236.4521
8236.3995
8235.7381
8235.2424
8234.878
8234.4725
8234.2514
8233.9378
8233.6663
8233.3207
8232.9705
8232.6184
8232.3156
8232.0919
8231.9743
8231.9743
8232.0919
8232.3156
8232.6184
8232.9705
8233.3207
8233.6663
8233.9378
8234.2514
8234.4725
8234.878
8235.2424
8235.7381
8236.3995
8236.4521
8239.1395
8239.1627
8238.474
8237.9938
8237.6148
8237.2336
8237.0554
8236.8178
8236.6492
8236.4199
8236.1886
8235.9432
8235.7276
8235.5645
8235.478
8235.478
8235.5645
8235.7276
8235.9432
8236.1886
8236.4199
8236.6492
8236.8178
8237.0554
8237.2336
8237.6148
8237.9938
8238.474
8239.1627
8239.1395
8241.884
8241.9902
8241.2735
8240.8146
8240.4193
8240.0568
8239.9106
8239.7372
8239.6599
8239.5394
8239.4242
8239.2862
8239.1601
8239.0603
8239.0062
8239.0062
8239.0603
8239.1601
8239.2862
8239.4242
8239.5394
8239.6599
8239.7372
8239.9106
8240.0568
8240.4194
8240.8146
8241.2735
8241.9902
8241.884
8244.6946
8244.8893
8244.1413
8243.7095
8243.2976
8242.9501
8242.8265
8242.7059
8242.7073
8242.685
8242.6791
8242.6454
8242.6081
8242.5718
8242.5506
8242.5506
8242.5718
8242.6081
8242.6454
8242.6791
8242.685
8242.7073
8242.7059
8242.8265
8242.9501
8243.2976
8243.7095
8244.1413
8244.8893
8244.6946
8247.5792
8247.8647
8247.0806
8246.6817
8246.2533
8245.9189
8245.8097
8245.7309
8245.7976
8245.8608
8245.9541
8246.018
8246.0658
8246.0911
8246.1021
8246.1021
8246.0911
8246.0658
8246.018
8245.9541
8245.8608
8245.7976
8245.7309
8245.8097
8245.9189
8246.2533
8246.6817
8247.0806
8247.8647
8247.5792
8250.5444
8250.9206
8250.0945
8249.7343
8249.2893
8248.9671
8248.8652
8248.8173
8248.9352
8249.0696
8249.2488
8249.4004
8249.5266
8249.6096
8249.6507
8249.6507
8249.6096
8249.5266
8249.4004
8249.2488
8249.0696
8248.9352
8248.8173
8248.8652
8248.9671
8249.2893
8249.7343
8250.0945
8250.9206
8250.5444
8253.5959
8254.0613
8253.1876
8252.8708
8252.4085
8252.098
8251.9974
8251.9703
8252.125
8252.3146
8252.5641
8252.7901
8252.9851
8253.1196
8253.1878
8253.1878
8253.1196
8252.9851
8252.7901
8252.5641
8252.3146
8252.125
8251.9703
8251.9974
8252.098
8252.4085
8252.8708
8253.1876
8254.0613
8253.5959
8256.738
8257.2912
8256.3653
8256.0947
8255.6132
8255.3144
8255.2101
8255.1947
8255.3719
8255.6
8255.9023
8256.187
8256.4384
8256.6162
8256.7075
8256.7075
8256.6162
8256.4384
8256.187
8255.9023
8255.6
8255.3719
8255.1947
8255.2101
8255.3144
8255.6132
8256.0947
8256.3653
8257.2912
8256.738
8259.9746
8260.6143
8259.6327
8259.4092
8258.9054
8258.6184
8258.5056
8258.4939
8258.6801
8258.93
8259.2665
8259.5923
8259.8859
8260.0971
8260.2064
8260.2064
8260.0971
8259.8859
8259.5923
8259.2665
8258.93
8258.6801
8258.4939
8258.5056
8258.6184
8258.9054
8259.4092
8259.6327
8260.6143
8259.9746
8263.3089
8264.0341
8262.9946
8262.817
8262.287
8262.0112
8261.8855
8261.87
8262.0527
8262.3083
8262.6601
8263.0086
8263.3284
8263.5619
8263.6838
8263.6838
8263.5619
8263.3284
8263.0086
8262.6601
8262.3083
8262.0527
8261.87
8261.8855
8262.0112
8262.287
8262.817
8262.9946
8264.0341
8263.3089
8266.7449
8267.5534
8266.4552
8266.3204
8265.7595
8265.4932
8265.3498
8265.3239
8265.4914
8265.737
8266.086
8266.4389
8266.7688
8267.0127
8267.1416
8267.1416
8267.0127
8266.7688
8266.4389
8266.086
8265.737
8265.4914
8265.3239
8265.3498
8265.4933
8265.7595
8266.3205
8266.4552
8267.5534
8266.7449
8270.2885
8271.1744
8270.0172
8269.9215
8269.324
8269.0642
8268.8972
8268.8544
8268.9957
8269.2177
8269.5473
8269.8871
8270.2112
8270.4538
8270.5837
8270.5837
8270.4538
8270.2112
8269.8871
8269.5473
8269.2177
8268.9957
8268.8544
8268.8972
8269.0642
8269.324
8269.9215
8270.0172
8271.1744
8270.2885
8273.9425
8274.8983
8273.6828
8273.6217
8272.9809
8272.7233
8272.5264
8272.4596
8272.565
8272.7513
8273.0465
8273.3574
8273.6608
8273.8908
8274.0154
8274.0154
8273.8908
8273.6608
8273.3574
8273.0465
8272.7513
8272.565
8272.4596
8272.5264
8272.7233
8272.9809
8273.6218
8273.6828
8274.8983
8273.9425
8277.7093
8278.725
8277.453
8277.4217
8276.7307
8276.4703
8276.2358
8276.1383
8276.1987
8276.3386
8276.5864
8276.8543
8277.1236
8277.3303
8277.4439
8277.4439
8277.3304
8277.1236
8276.8543
8276.5864
8276.3386
8276.1987
8276.1383
8276.2358
8276.4703
8276.7307
8277.4217
8277.453
8278.7251
8277.7093
8281.592
8282.6543
8281.3282
8281.3217
8280.574
8280.3045
8280.0247
8279.8897
8279.8968
8279.9806
8280.1695
8280.3822
8280.606
8280.7803
8280.8775
8280.8775
8280.7803
8280.606
8280.3822
8280.1695
8279.9806
8279.8968
8279.8897
8280.0247
8280.3045
8280.574
8281.3217
8281.3282
8282.6543
8281.592
8285.5923
8286.6875
8285.3094
8285.3216
8284.511
8284.2259
8283.8926
8283.7135
8283.6592
8283.6783
8283.7986
8283.9463
8284.115
8284.2491
8284.3257
8284.3257
8284.2491
8284.115
8283.9463
8283.7986
8283.6783
8283.6592
8283.7135
8283.8926
8284.2259
8284.511
8285.3216
8285.3094
8286.6875
8285.5923
8289.7116
8290.8301
8289.3975
8289.4209
8288.542
8288.2346
8287.8401
8287.6101
8287.4863
8287.4333
8287.4771
8287.5519
8287.658
8287.7461
8287.7987
8287.7987
8287.7461
8287.658
8287.5519
8287.4771
8287.4333
8287.4863
8287.6101
8287.8401
8288.2346
8288.5421
8289.4209
8289.3975
8290.8301
8289.7116
8293.9498
8295.0863
8293.593
8293.6193
8292.6671
8292.3301
8291.8662
8291.5789
8291.3792
8291.2475
8291.2083
8291.2047
8291.243
8291.2809
8291.3071
8291.3071
8291.2809
8291.243
8291.2047
8291.2083
8291.2475
8291.3792
8291.5789
8291.8662
8292.3301
8292.6671
8293.6193
8293.593
8295.0863
8293.9498
8298.3044
8299.4538
8297.8967
8297.9173
8296.8857
8296.5111
8295.9703
8295.6195
8295.3384
8295.1238
8294.9968
8294.9107
8294.878
8294.8634
8294.8619
8294.8619
8294.8634
8294.878
8294.9107
8294.9968
8295.1238
8295.3384
8295.6195
8295.9703
8296.5111
8296.8857
8297.9173
8297.8967
8299.4538
8298.3044
8302.7737
8303.9266
8302.3082
8302.314
8301.1974
8300.7775
8300.1525
8299.7322
8299.3647
8299.0646
8298.8475
8298.6768
8298.5717
8298.5038
8298.474
8298.474
8298.5038
8298.5717
8298.6768
8298.8475
8299.0646
8299.3647
8299.7322
8300.1525
8300.7775
8301.1974
8302.314
8302.3082
8303.9266
8302.7737
8307.3576
8308.5017
8306.8246
8306.8069
8305.6014
8305.1291
8304.4136
8303.9184
8303.4604
8303.073
8302.7654
8302.5101
8302.3328
8302.2122
8302.1545
8302.1545
8302.2122
8302.3328
8302.5101
8302.7654
8303.073
8303.4604
8303.9184
8304.4136
8305.1291
8305.6014
8306.8069
8306.8246
8308.5017
8307.3576
8312.0558
8313.1784
8311.4421
8311.3928
8310.0965
8309.5655
8308.7543
8308.18
8307.6282
8307.1526
8306.7555
8306.4181
8306.1705
8305.9989
8305.9146
8305.9146
8305.9989
8306.1705
8306.4181
8306.7555
8307.1526
8307.6282
8308.18
8308.7543
8309.5655
8310.0965
8311.3928
8311.4421
8313.1784
8312.0558
8316.8675
8317.9564
8316.1567
8316.0697
8314.6816
8314.0864
8313.1758
8312.5191
8311.8716
8311.3078
8310.8232
8310.4075
8310.0937
8309.8744
8309.7651
8309.7651
8309.8744
8310.0937
8310.4075
8310.8232
8311.3078
8311.8716
8312.5191
8313.1758
8314.0864
8314.6816
8316.0697
8316.1567
8317.9564
8316.8675
8321.7902
8322.8377
8320.9669
8320.8368
8319.3565
8318.6923
8317.6799
8316.9387
8316.1949
8315.5441
8314.9746
8314.4853
8314.1104
8313.8475
8313.7154
8313.7154
8313.8475
8314.1104
8314.4853
8314.9746
8315.5441
8316.1949
8316.9387
8317.6799
8318.6923
8319.3565
8320.8368
8320.9669
8322.8377
8321.7902
8326.8192
8327.8244
8325.8734
8325.6942
8324.1213
8323.3845
8322.2692
8321.4427
8320.603
8319.8676
8319.2168
8318.6588
8318.2283
8317.9265
8317.7742
8317.7742
8317.9265
8318.2283
8318.6588
8319.2168
8319.8676
8320.603
8321.4427
8322.2692
8323.3845
8324.1213
8325.6942
8325.8734
8327.8244
8326.8192
8331.9484
8332.9158
8330.8761
8330.6431
8328.9773
8328.1648
8326.9469
8326.0349
8325.101
8324.2846
8323.5573
8322.9363
8322.4558
8322.12
8321.9502
8321.9502
8322.12
8322.4558
8322.9363
8323.5573
8324.2846
8325.101
8326.0349
8326.9469
8328.1648
8328.9773
8330.6431
8330.8761
8332.9158
8331.9484
8337.1706
8338.1099
8335.9751
8335.6865
8333.9264
8333.0361
8331.7164
8330.7198
8329.6945
8328.8018
8328.0039
8327.3261
8326.8013
8326.4365
8326.2519
8326.2519
8326.4365
8326.8013
8327.3261
8328.0039
8328.8018
8329.6945
8330.7198
8331.7164
8333.0361
8333.9264
8335.6865
8335.9751
8338.1099
8337.1706
8342.4812
8343.406
8341.1698
8340.8272
8338.9705
8338.0013
8336.5818
8335.5026
8334.3899
8333.4264
8332.564
8331.836
8331.2729
8330.8837
8330.687
8330.687
8330.8837
8331.2729
8331.836
8332.564
8333.4264
8334.3899
8335.5026
8336.5818
8338.0013
8338.9705
8340.8272
8341.1698
8343.406
8342.4812
8347.8783
8348.8041
8346.4596
8346.0653
8344.1108
8343.0634
8341.5474
8340.3888
8339.194
8338.1654
8337.2453
8336.4737
8335.878
8335.4688
8335.2622
8335.2622
8335.4688
8335.878
8336.4737
8337.2453
8338.1654
8339.194
8340.3888
8341.5474
8343.0634
8344.1108
8346.0653
8346.4596
8348.8041
8347.8783
8353.3609
8354.3055
8351.8473
8351.4009
8349.3487
8348.2258
8346.6176
8345.3846
8344.1135
8343.0262
8342.055
8341.2463
8340.6236
8340.1983
8339.9839
8339.9839
8340.1983
8340.6236
8341.2464
8342.055
8343.0262
8344.1135
8345.3846
8346.6176
8348.2258
8349.3487
8351.4009
8351.8473
8354.3055
8353.3609
8358.9278
8359.9102
8357.3324
8356.8352
8354.6872
8353.4928
8351.7979
8350.4961
8349.1555
8348.0162
8347.0005
8346.161
8345.5164
8345.0785
8344.8583
8344.8583
8345.0785
8345.5164
8346.161
8347.0005
8348.0162
8349.1555
8350.4961
8351.7979
8353.4928
8354.6872
8356.8352
8357.3324
8359.9102
8358.9278
8364.5782
8365.6188
8362.9131
8362.3707
8360.1301
8358.8693
8357.094
8355.7301
8354.3273
8353.1427
8352.0889
8351.2245
8350.5627
8350.1154
8349.8909
8349.8909
8350.1154
8350.5627
8351.2245
8352.0889
8353.1427
8354.3273
8355.7301
8357.094
8358.8693
8360.1301
8362.3707
8362.9131
8365.6188
8364.5782
8370.3125
8371.4358
8368.5938
8368.0124
8365.6824
8364.361
8362.5121
8361.0934
8359.6358
8358.4129
8357.3275
8356.4435
8355.7687
8355.3145
8355.0872
8355.0872
8355.3145
8355.7687
8356.4435
8357.3275
8358.4129
8359.6358
8361.0934
8362.5121
8364.361
8365.6824
8368.0124
8368.5938
8371.4358
8370.3125
8376.1323
8377.3684
8374.3807
8373.7658
8371.3499
8369.9742
8368.0588
8366.5929
8365.0885
8363.8342
8362.7231
8361.8245
8361.1404
8360.6816
8360.4526
8360.4526
8360.6816
8361.1404
8361.8245
8362.7231
8363.8342
8365.0885
8366.5929
8368.0588
8369.9742
8371.3499
8373.7658
8374.3807
8377.3684
8376.1323
8382.0443
8383.4228
8380.276
8379.6345
8377.1382
8375.7154
8373.7411
8372.2359
8370.6927
8369.4136
8368.2827
8367.3738
8366.6836
8366.2221
8365.9923
8365.9923
8366.2221
8366.6836
8367.3738
8368.2827
8369.4136
8370.6927
8372.2359
8373.7411
8375.7154
8377.1382
8379.6345
8380.276
8383.4228
8382.0443
8388.0544
8389.6054
8386.285
8385.625
8383.0543
8381.592
8379.5665
8378.03
8376.4555
8375.1583
8374.013
8373.0978
8372.4037
8371.9412
8371.7115
8371.7115
8371.9412
8372.4037
8373.0978
8374.013
8375.1583
8376.4555
8378.03
8379.5665
8381.592
8383.0543
8385.625
8386.285
8389.6054
8388.0544
8394.1672
8395.9246
8392.4175
8391.7481
8389.1073
8387.6124
8385.5433
8383.9829
8382.3845
8381.0752
8379.9206
8379.0028
8378.3067
8377.8447
8377.6157
8377.6157
8377.8447
8378.3067
8379.0028
8379.9206
8381.0752
8382.3845
8383.9829
8385.5433
8387.6124
8389.1074
8391.7482
8392.4176
8395.9246
8394.1672
8400.3882
8402.3902
8398.6835
8398.0136
8395.3071
8393.7868
8391.6811
8390.1035
8388.4877
8387.1717
8386.0123
8385.095
8384.3989
8383.9387
8383.7108
8383.7108
8383.9387
8384.3989
8385.095
8386.0123
8387.1717
8388.4877
8390.1035
8391.6811
8393.7868
8395.3071
8398.0136
8398.6835
8402.3902
8400.3882
8406.7245
8409.007
8405.0912
8404.4304
8401.6632
8400.1252
8397.9907
8396.4021
8394.7745
8393.4568
8392.2963
8391.3821
8390.6876
8390.2302
8390.0038
8390.0038
8390.2302
8390.6876
8391.3821
8392.2963
8393.4568
8394.7745
8396.4021
8397.9907
8400.1252
8401.6632
8404.4304
8405.0912
8409.007
8406.7245
8413.187
8415.7827
8411.6498
8411.0075
8408.1856
8406.6381
8404.4828
8402.8899
8401.256
8399.9409
8398.7824
8397.8731
8397.1818
8396.7282
8396.5035
8396.5035
8396.7282
8397.1818
8397.8731
8398.7824
8399.9409
8401.256
8402.8899
8404.4828
8406.6381
8408.1856
8411.0075
8411.6498
8415.7827
8413.187
8419.7919
8422.7376
8418.3696
8417.756
8414.8861
8413.3369
8411.1688
8409.5783
8407.9436
8406.6347
8405.4809
8404.5783
8403.892
8403.443
8403.2204
8403.2204
8403.443
8403.892
8404.5783
8405.4809
8406.6347
8407.9436
8409.5783
8411.1688
8413.3369
8414.8861
8417.756
8418.3696
8422.7376
8419.7919
8426.5473
8429.8978
8425.2689
8424.6937
8421.7802
8420.2355
8418.0612
8416.4791
8414.8483
8413.5491
8412.4026
8411.5088
8410.8288
8410.3851
8410.165
8410.165
8410.3851
8410.8288
8411.5088
8412.4026
8413.5491
8414.8483
8416.4791
8418.0612
8420.2355
8421.7802
8424.6937
8425.2689
8429.8978
8426.5473
8433.4456
8437.2852
8432.372
8431.845
8428.8871
8427.3507
8425.1754
8423.6059
8421.9829
8420.6962
8419.5593
8418.6759
8418.0033
8417.5653
8417.3479
8417.3479
8417.5653
8418.0033
8418.6759
8419.5593
8420.6962
8421.9829
8423.6059
8425.1754
8427.3507
8428.8871
8431.845
8432.372
8437.2852
8433.4456
8440.4926
8444.9157
8439.6941
8439.2273
8436.225
8434.6996
8432.5271
8430.9731
8429.3603
8428.088
8426.9621
8426.09
8425.4253
8424.9934
8424.7788
8424.7788
8424.9934
8425.4253
8426.09
8426.9621
8428.088
8429.3603
8430.9731
8432.5271
8434.6996
8436.225
8439.2273
8439.6941
8444.9157
8440.4926
8447.7077
8452.8018
8447.2403
8446.8461
8443.8052
8442.2948
8440.1265
8438.5874
8436.9851
8435.727
8434.6121
8433.751
8433.094
8432.6679
8432.456
8432.456
8432.6679
8433.094
8433.751
8434.6121
8435.727
8436.9851
8438.5874
8440.1265
8442.2948
8443.8052
8446.8461
8447.2403
8452.8018
8447.7077
8455.0977
8460.9524
8455.0218
8454.707
8451.6283
8450.1361
8447.968
8446.441
8444.8483
8443.6034
8442.4988
8441.6479
8440.998
8440.5774
8440.3682
8440.3682
8440.5774
8440.998
8441.6479
8442.4988
8443.6034
8444.8483
8446.441
8447.968
8450.1361
8451.6283
8454.707
8455.0218
8460.9524
8455.0977
8462.666
8469.3774
8463.0479
8462.8178
8459.691
8458.2174
8456.0456
8454.5287
8452.9447
8451.7123
8450.6177
8449.7766
8449.1337
8448.7184
8448.5119
8448.5119
8448.7184
8449.1337
8449.7766
8450.6177
8451.7123
8452.9447
8454.5287
8456.0457
8458.2174
8459.6911
8462.8178
8463.0479
8469.3775
8462.666
8470.4247
8478.087
8471.3226
8471.1891
8467.9998
8466.5439
8464.367
8462.8594
8461.2831
8460.0618
8458.9767
8458.145
8457.5087
8457.0988
8456.8949
8456.8949
8457.0988
8457.5087
8458.145
8458.9767
8460.0618
8461.2831
8462.8594
8464.367
8466.5439
8467.9998
8471.1891
8471.3226
8478.087
8470.4247
8478.3905
8487.0881
8479.8571
8479.836
8476.572
8475.1323
8472.9475
8471.4466
8469.8756
8468.6634
8467.5865
8466.7629
8466.1327
8465.7276
8465.5263
8465.5263
8465.7276
8466.1327
8466.7629
8467.5865
8468.6634
8469.8756
8471.4466
8472.9475
8475.1323
8476.572
8479.836
8479.8571
8487.0881
8478.3905
8486.586
8496.381
8488.6681
8488.7779
8485.4272
8484.0008
8481.8006
8480.3002
8478.7301
8477.5237
8476.4526
8475.6355
8475.0102
8474.6094
8474.4104
8474.4104
8474.6094
8475.0102
8475.6355
8476.4526
8477.5237
8478.7301
8480.3002
8481.8006
8484.0008
8485.4272
8488.7779
8488.6681
8496.381
8486.586
8495.0297
8505.9633
8497.7705
8498.0327
8494.5848
8493.1643
8490.933
8489.4213
8487.8462
8486.6414
8485.5734
8484.7603
8484.1386
8483.7411
8483.544
8483.544
8483.7411
8484.1386
8484.7603
8485.5734
8486.6414
8487.8462
8489.4213
8490.933
8493.1643
8494.5848
8498.0327
8497.7705
8505.9633
8495.0297
8503.7179
8515.8375
8507.1811
8507.6128
8504.0604
8502.6359
8500.359
8498.832
8497.2478
8496.0403
8494.9722
8494.1608
8493.5411
8493.146
8492.9504
8492.9504
8493.146
8493.5411
8494.1608
8494.9722
8496.0403
8497.2478
8498.832
8500.359
8502.6359
8504.0604
8507.6128
8507.1811
8515.8375
8503.7179
8512.6517
8526.0062
8516.916
8517.5258
8513.8641
8512.4263
8510.1063
8508.568
8506.972
8505.7578
8504.6864
8503.8739
8503.2544
8502.8606
8502.6661
8502.6661
8502.8606
8503.2544
8503.8739
8504.6864
8505.7578
8506.972
8508.568
8510.1063
8512.4263
8513.8641
8517.5258
8516.916
8526.0062
8512.6517
8521.8538
8536.483
8526.9899
8527.7799
8524.0052
8522.5407
8520.1926
8518.6417
8517.0301
8515.8051
8514.7267
8513.9101
8513.2885
8512.8947
8512.7005
8512.7005
8512.8947
8513.2885
8513.9101
8514.7267
8515.8051
8517.0301
8518.6417
8520.1926
8522.5407
8524.0052
8527.7799
8526.9899
8536.483
8521.8538
8531.3611
8547.2758
8537.4213
8538.386
8534.4956
8532.9939
8530.6242
8529.0545
8527.423
8526.1831
8525.0941
8524.2699
8523.6439
8523.2484
8523.0538
8523.0538
8523.2484
8523.6439
8524.2699
8525.0941
8526.1831
8527.423
8529.0545
8530.6242
8532.9939
8534.4956
8538.386
8537.4213
8547.2758
8531.3611
8541.2132
8558.3675
8548.2254
8549.3704
8545.3458
8543.8029
8541.4058
8539.8087
8538.1534
8536.8941
8535.7908
8534.9558
8534.323
8533.9242
8533.7286
8533.7286
8533.9242
8534.323
8534.9558
8535.7908
8536.8941
8538.1534
8539.8087
8541.4058
8543.8029
8545.3458
8549.3704
8548.2254
8558.3675
8541.2132
8551.4422
8569.7354
8559.4057
8560.7371
8556.5605
8554.9748
8552.5418
8550.9091
8549.2262
8547.9433
8546.822
8545.9729
8545.3311
8544.9274
8544.73
8544.73
8544.9274
8545.3311
8545.9729
8546.822
8547.9433
8549.2262
8550.9091
8552.5418
8554.9749
8556.5605
8560.7371
8559.4057
8569.7354
8551.4422
8562.074
8581.3633
8570.9555
8572.4538
8568.1461
8566.5249
8564.042
8562.3656
8560.6508
8559.3396
8558.1966
8557.3302
8556.6767
8556.2666
8556.0665
8556.0665
8556.2666
8556.6767
8557.3302
8558.1966
8559.3396
8560.6508
8562.3656
8564.042
8566.5249
8568.1462
8572.4538
8570.9555
8581.3634
8562.074
8573.1291
8593.2448
8582.8783
8584.5082
8580.1131
8578.467
8575.9296
8574.2046
8572.4526
8571.1069
8569.9372
8569.049
8568.3807
8567.962
8567.7583
8567.7583
8567.962
8568.3807
8569.049
8569.9372
8571.1069
8572.4526
8574.2046
8575.9296
8578.467
8580.1131
8584.5082
8582.8783
8593.2448
8573.1291
8584.6324
8605.3732
8595.186
8596.9144
8592.4719
8590.8082
8588.2204
8586.4476
8584.6561
8583.2716
8582.0714
8581.1579
8580.4721
8580.043
8579.8349
8579.8349
8580.043
8580.4721
8581.1579
8582.0714
8583.2716
8584.6561
8586.4476
8588.2204
8590.8082
8592.4719
8596.9144
8595.186
8605.3732
8584.6324
8596.5991
8617.7441
8607.8892
8609.6854
8605.2308
8603.5526
8600.9208
8599.103
8597.2728
8595.8485
8594.6162
8593.6753
8592.9703
8592.5298
8592.3166
8592.3166
8592.5298
8592.9703
8593.6753
8594.6162
8595.8485
8597.2728
8599.103
8600.9208
8603.5527
8605.2308
8609.6854
8607.8892
8617.7441
8596.5991
8609.0362
8630.3793
8620.9985
8622.8281
8618.397
8616.7042
8614.0346
8612.1751
8610.3081
8608.8443
8607.5797
8606.6104
8605.8854
8605.4326
8605.2142
8605.2142
8605.4326
8605.8854
8606.6104
8607.5797
8608.8443
8610.3081
8612.1751
8614.0346
8616.7042
8618.397
8622.8282
8620.9985
8630.3793
8609.0362
8621.9509
8643.3495
8634.5271
8636.3417
8631.9748
8630.2672
8627.5676
8625.6696
8623.7681
8622.2658
8620.9691
8619.9711
8619.2256
8618.7604
8618.5366
8618.5366
8618.7604
8619.2256
8619.9711
8620.9691
8622.2658
8623.7681
8625.6696
8627.5676
8630.2672
8631.9748
8636.3417
8634.5271
8643.3495
8621.9509
8635.3536
8656.7016
8648.4796
8650.2294
8645.9697
8644.2477
8641.5267
8639.594
8637.6611
8636.1218
8634.7941
8633.7675
8633.0016
8632.5241
8632.2949
8632.2949
8632.5241
8633.0016
8633.7675
8634.7941
8636.1218
8637.6611
8639.594
8641.5267
8644.2477
8645.9697
8650.2294
8648.4796
8656.7016
8635.3536
8649.2448
8670.4234
8662.851
8664.5052
8660.389
8658.6523
8655.9191
8653.9559
8651.9956
8650.422
8649.0649
8648.0109
8647.2252
8646.7358
8646.5016
8646.5016
8646.7358
8647.2252
8648.0109
8649.0649
8650.422
8651.9956
8653.9559
8655.9191
8658.6523
8660.389
8664.5052
8662.851
8670.4234
8649.2448
8663.6305
8684.485
8677.6177
8679.1812
8675.2442
8673.4887
8670.7519
8668.7629
8666.7802
8665.1758
8663.7921
8662.7123
8661.9084
8661.4081
8661.1693
8661.1693
8661.4081
8661.9084
8662.7123
8663.7921
8665.1759
8666.7802
8668.7629
8670.7519
8673.4887
8675.2442
8679.1812
8677.6177
8684.485
8663.6305
8678.5146
8698.8739
8692.7691
8694.27
8690.5361
8688.762
8686.0323
8684.0225
8682.0231
8680.3926
8678.9859
8677.883
8677.0627
8676.553
8676.3106
8676.3106
8676.553
8677.0627
8677.883
8678.9859
8680.3926
8682.0231
8684.0225
8686.0323
8688.762
8690.5361
8694.27
8692.7691
8698.8739
8678.5146
8693.8865
8713.6379
8708.3055
8709.776
8706.2638
8704.477
8701.7663
8699.7417
8697.7324
8696.0813
8694.6561
8693.5336
8692.6997
8692.1827
8691.9376
8691.9376
8692.1827
8692.6997
8693.5336
8694.6561
8696.0813
8697.7324
8699.7417
8701.7663
8704.477
8706.2638
8709.776
8708.3055
8713.6379
8693.8865
8709.7402
8728.8239
8724.1893
8725.7029
8722.4291
8720.6391
8717.9592
8715.9267
8713.9155
8712.2503
8710.812
8709.6744
8708.8302
8708.3084
8708.062
8708.062
8708.3084
8708.8302
8709.6744
8710.812
8712.2503
8713.9155
8715.9267
8717.9592
8720.6391
8722.4291
8725.7029
8724.1893
8728.8239
8709.7402
8726.0641
8744.4608
8740.4441
8742.0682
8739.0368
8737.2535
8734.6158
8732.5834
8730.579
8728.907
8727.462
8726.3144
8725.4641
8724.9405
8724.6945
8724.6945
8724.9405
8725.4641
8726.3144
8727.462
8728.907
8730.579
8732.5834
8734.6158
8737.2535
8739.0368
8742.0682
8740.4441
8744.4608
8726.0641
8742.8141
8760.5665
8757.1453
8758.893
8756.0929
8754.3249
8751.741
8749.7174
8747.7289
8746.0582
8744.6135
8743.4618
8742.61
8742.088
8741.8441
8741.8441
8742.088
8742.61
8743.4618
8744.6135
8746.0582
8747.7289
8749.7174
8751.741
8754.3249
8756.0929
8758.893
8757.1454
8760.5665
8742.8141
8759.9762
8777.1355
8774.2992
8776.1784
8773.6
8771.8598
8769.3401
8767.334
8765.3708
8763.7101
8762.2731
8761.1236
8760.2755
8759.759
8759.5192
8759.5192
8759.759
8760.2755
8761.1236
8762.2731
8763.7101
8765.3708
8767.334
8769.3401
8771.8598
8773.6001
8776.1784
8774.2992
8777.1355
8759.9762
8777.6067