/*--------------------------------*- C++ -*----------------------------------*\
  =========                 |
  \\      /  F ield         | OpenFOAM: The Open Source CFD Toolbox
   \\    /   O peration     | Website:  https://openfoam.org
    \\  /    A nd           | Version:  8
     \\/     M anipulation  |
\*---------------------------------------------------------------------------*/
/*   Windows 32 and 64 bit porting by blueCAPE: http://www.bluecape.com.pt   *\
|  Based on Windows porting (2.0.x v4) by Symscape: http://www.symscape.com   |
\*---------------------------------------------------------------------------*/
FoamFile
{
    version     2.0;
    format      ascii;
    class       volScalarField;
    location    "60";
    object      p_rgh;
}
// * * * * * * * * * * * * * * * * * * * * * * * * * * * * * * * * * * * * * //

dimensions      [1 -1 -2 0 0 0 0];

internalField   nonuniform List<scalar> 
283500
(
9840.073
9831.0865
9828.1931
9826.219
9825.0472
9824.2913
9823.7919
9823.4545
9823.2231
9823.0632
9822.9526
9822.8768
9822.8266
9822.7961
9822.7816
9822.7816
9822.7961
9822.8266
9822.8768
9822.9526
9823.0632
9823.2231
9823.4545
9823.7919
9824.2913
9825.0472
9826.219
9828.1931
9831.0865
9840.073
9825.263
9821.4398
9819.9255
9818.2447
9817.1838
9816.4471
9815.9434
9815.595
9815.3525
9815.1833
9815.0652
9814.984
9814.9299
9814.8969
9814.8813
9814.8813
9814.8969
9814.9299
9814.984
9815.0652
9815.1833
9815.3525
9815.595
9815.9434
9816.4471
9817.1838
9818.2447
9819.9255
9821.4398
9825.263
9817.7913
9816.059
9815.291
9813.889
9812.972
9812.2517
9811.7302
9811.3537
9811.0842
9810.8921
9810.756
9810.6614
9810.598
9810.559
9810.5404
9810.5404
9810.559
9810.598
9810.6614
9810.756
9810.8921
9811.0842
9811.3537
9811.7302
9812.2517
9812.972
9813.889
9815.291
9816.059
9817.7913
9817.3933
9815.8469
9815.0085
9813.6317
9812.7358
9811.9692
9811.3962
9810.9684
9810.6538
9810.4241
9810.2587
9810.1422
9810.0634
9810.0146
9809.9913
9809.9913
9810.0146
9810.0634
9810.1422
9810.2587
9810.4241
9810.6538
9810.9684
9811.3962
9811.9692
9812.7358
9813.6317
9815.0085
9815.8469
9817.3933
9819.2568
9817.6547
9816.6108
9815.1246
9814.1369
9813.259
9812.5965
9812.0901
9811.711
9811.4301
9811.2252
9811.0791
9810.9791
9810.9169
9810.887
9810.887
9810.9169
9810.9791
9811.0791
9811.2252
9811.4301
9811.711
9812.0901
9812.5965
9813.259
9814.1369
9815.1246
9816.6108
9817.6547
9819.2568
9821.3221
9819.7984
9818.6739
9817.0873
9815.9849
9814.9765
9814.2058
9813.6021
9813.1428
9812.7977
9812.543
9812.3596
9812.2333
9812.1543
9812.1163
9812.1163
9812.1543
9812.2333
9812.3596
9812.543
9812.7977
9813.1428
9813.6021
9814.2058
9814.9765
9815.9849
9817.0873
9818.6739
9819.7984
9821.3221
9823.4254
9822.0344
9820.9088
9819.2605
9818.0633
9816.932
9816.0506
9815.343
9814.7956
9814.3781
9814.0661
9813.8393
9813.6821
9813.5833
9813.5356
9813.5356
9813.5833
9813.6821
9813.8393
9814.0661
9814.3781
9814.7956
9815.343
9816.0506
9816.932
9818.0633
9819.2605
9820.9088
9822.0344
9823.4254
9825.6776
9824.4264
9823.3315
9821.6505
9820.382
9819.1394
9818.1495
9817.3347
9816.6939
9816.1975
9815.8219
9815.5461
9815.3537
9815.2321
9815.1731
9815.1731
9815.2321
9815.3537
9815.5461
9815.8219
9816.1975
9816.6939
9817.3347
9818.1495
9819.1394
9820.382
9821.6505
9823.3315
9824.4264
9825.6776
9828.0345
9826.9361
9825.8975
9824.2137
9822.8991
9821.5599
9820.4675
9819.5452
9818.8075
9818.2268
9817.7819
9817.4519
9817.2198
9817.0724
9817.0007
9817.0007
9817.0724
9817.2198
9817.4519
9817.7819
9818.2268
9818.8075
9819.5452
9820.4675
9821.5599
9822.8991
9824.2137
9825.8975
9826.9361
9828.0345
9830.4071
9829.4755
9828.5176
9826.8674
9825.5387
9824.125
9822.9429
9821.9178
9821.0828
9820.4145
9819.8957
9819.5068
9819.2313
9819.0553
9818.9695
9818.9695
9819.0553
9819.2313
9819.5068
9819.8957
9820.4145
9821.0828
9821.9178
9822.9429
9824.125
9825.5387
9826.8674
9828.5176
9829.4755
9830.4071
9832.7506
9831.9881
9831.1272
9829.5462
9828.2378
9826.7779
9825.5255
9824.4077
9823.4797
9822.7235
9822.1287
9821.6777
9821.3556
9821.1487
9821.0474
9821.0474
9821.1487
9821.3556
9821.6777
9822.1287
9822.7235
9823.4797
9824.4077
9825.5255
9826.7779
9828.2378
9829.5462
9831.1272
9831.9881
9832.7506
9835.0612
9834.4542
9833.6972
9832.2148
9830.9581
9829.4822
9828.183
9826.9878
9825.9752
9825.1344
9824.4636
9823.9491
9823.5784
9823.3389
9823.2213
9823.2213
9823.3389
9823.5784
9823.9491
9824.4636
9825.1344
9825.9752
9826.9878
9828.183
9829.4822
9830.9581
9832.2148
9833.6973
9834.4542
9835.0612
9837.3503
9836.8761
9836.2179
9834.8546
9833.6761
9832.2138
9830.894
9829.6403
9828.5555
9827.6367
9826.8928
9826.3151
9825.8951
9825.6221
9825.4875
9825.4875
9825.6221
9825.8951
9826.3151
9826.8928
9827.6367
9828.5555
9829.6403
9830.894
9832.2138
9833.6761
9834.8546
9836.2179
9836.8761
9837.3503
9839.6311
9839.2623
9838.6891
9837.4563
9836.3756
9834.9543
9833.6407
9832.3505
9831.2095
9830.2226
9829.4111
9828.7729
9828.3044
9827.9979
9827.8463
9827.8463
9827.9979
9828.3044
9828.7729
9829.4111
9830.2226
9831.2095
9832.3505
9833.6407
9834.9543
9836.3756
9837.4563
9838.6891
9839.2623
9839.6311
9841.9149
9841.6233
9841.1174
9840.0172
9839.046
9837.6891
9836.4081
9835.1052
9833.9268
9832.8851
9832.0146
9831.3207
9830.8063
9830.4675
9830.2992
9830.2992
9830.4675
9830.8063
9831.3207
9832.0146
9832.8851
9833.9268
9835.1052
9836.4081
9837.6891
9839.046
9840.0172
9841.1174
9841.6233
9841.9149
9844.2127
9843.9707
9843.5131
9842.5395
9841.6815
9840.4079
9839.1836
9837.8923
9836.6978
9835.6174
9834.6993
9833.9571
9833.4012
9833.0325
9832.8486
9832.8486
9833.0325
9833.4012
9833.9571
9834.6993
9835.6174
9836.6978
9837.8923
9839.1836
9840.4079
9841.6815
9842.5395
9843.5131
9843.9707
9844.2127
9846.5352
9846.3169
9845.8882
9845.0287
9844.2809
9843.1048
9841.9578
9840.7012
9839.5129
9838.4123
9837.4608
9836.6802
9836.0894
9835.6945
9835.4968
9835.4968
9835.6945
9836.0894
9836.6802
9837.4608
9838.4123
9839.5129
9840.7012
9841.9578
9843.1048
9844.2809
9845.0288
9845.8882
9846.3169
9846.5352
9848.8894
9848.6736
9848.255
9847.4932
9846.8472
9845.7768
9844.7232
9843.5226
9842.3629
9841.2624
9840.2939
9839.4872
9838.8697
9838.4539
9838.2448
9838.2448
9838.4539
9838.8697
9839.4872
9840.2939
9841.2624
9842.3629
9843.5226
9844.7232
9845.7768
9846.8472
9847.4932
9848.255
9848.6736
9848.8894
9851.2768
9851.05
9850.6253
9849.9427
9849.3859
9848.4234
9847.4746
9846.3485
9845.239
9844.1595
9843.1922
9842.3736
9841.7399
9841.3096
9841.0924
9841.0924
9841.3096
9841.7399
9842.3736
9843.1922
9844.1595
9845.239
9846.3485
9847.4746
9848.4234
9849.3859
9849.9427
9850.6253
9851.05
9851.2768
9853.6953
9853.4534
9853.01
9852.3878
9851.9046
9851.0472
9850.2093
9849.1731
9848.1337
9847.0958
9846.1489
9845.3343
9844.6961
9844.2593
9844.0377
9844.0377
9844.2593
9844.6961
9845.3343
9846.1489
9847.0958
9848.1337
9849.1731
9850.2093
9851.0472
9851.9046
9852.3878
9853.01
9853.4534
9853.6953
9856.1429
9855.8897
9855.4188
9854.8394
9854.4132
9853.6539
9852.9282
9851.9933
9851.0412
9850.0644
9849.1572
9848.3634
9847.7339
9847.2993
9847.0779
9847.0779
9847.2993
9847.7339
9848.3634
9849.1572
9850.0644
9851.0412
9851.9933
9852.9282
9853.6539
9854.4132
9854.8394
9855.4188
9855.8897
9856.1429
9858.6187
9858.3636
9857.8601
9857.3089
9856.9231
9856.2521
9855.6352
9854.8091
9853.9581
9853.0599
9852.2111
9851.455
9850.8482
9850.4253
9850.2089
9850.2089
9850.4253
9850.8482
9851.455
9852.2111
9853.0599
9853.9581
9854.8091
9855.6352
9856.2521
9856.9231
9857.3089
9857.8601
9858.3636
9858.6187
9861.1231
9860.8787
9860.3408
9859.8069
9859.4462
9858.8518
9858.3366
9857.622
9856.8826
9856.0779
9855.3047
9854.6031
9854.0327
9853.6315
9853.4253
9853.4253
9853.6315
9854.0327
9854.6031
9855.3047
9856.0779
9856.8826
9857.622
9858.3366
9858.8518
9859.4462
9859.8069
9860.3408
9860.8787
9861.1231
9863.6561
9863.4373
9862.8655
9862.3424
9861.9937
9861.4633
9861.0398
9860.4357
9859.8141
9859.115
9858.4324
9857.8006
9857.2803
9856.9107
9856.7197
9856.7197
9856.9107
9857.2803
9857.8006
9858.4324
9859.115
9859.8141
9860.4357
9861.0398
9861.4633
9861.9937
9862.3424
9862.8655
9863.4373
9863.6561
9866.2178
9866.0412
9865.4378
9864.9227
9864.5756
9864.0972
9863.7537
9863.2551
9862.7534
9862.1687
9861.589
9861.0405
9860.5827
9860.254
9860.0833
9860.0833
9860.254
9860.5827
9861.0405
9861.589
9862.1687
9862.7534
9863.2551
9863.7537
9864.0972
9864.5756
9864.9227
9865.4378
9866.0412
9866.2178
9868.8133
9868.6937
9868.0607
9867.5541
9867.201
9866.7636
9866.4876
9866.0866
9865.7029
9865.2375
9864.7697
9864.3155
9863.931
9863.6514
9863.5054
9863.5054
9863.6514
9863.931
9864.3155
9864.7697
9865.2375
9865.7029
9866.0866
9866.4876
9866.7637
9867.201
9867.5541
9868.0607
9868.6937
9868.8134
9871.4521
9871.3994
9870.738
9870.2424
9869.878
9869.4725
9869.2514
9868.9378
9868.6663
9868.3207
9867.9705
9867.6184
9867.3156
9867.0919
9866.9743
9866.9743
9867.0919
9867.3156
9867.6184
9867.9705
9868.3207
9868.6663
9868.9378
9869.2514
9869.4725
9869.878
9870.2424
9870.738
9871.3994
9871.4521
9874.1395
9874.1627
9873.474
9872.9938
9872.6148
9872.2336
9872.0554
9871.8178
9871.6491
9871.4199
9871.1886
9870.9432
9870.7276
9870.5645
9870.478
9870.478
9870.5645
9870.7276
9870.9432
9871.1886
9871.4199
9871.6491
9871.8178
9872.0554
9872.2336
9872.6148
9872.9938
9873.474
9874.1627
9874.1395
9876.884
9876.9902
9876.2735
9875.8146
9875.4193
9875.0568
9874.9105
9874.7372
9874.6599
9874.5394
9874.4241
9874.2861
9874.1601
9874.0603
9874.0062
9874.0062
9874.0603
9874.1601
9874.2861
9874.4242
9874.5394
9874.6599
9874.7372
9874.9105
9875.0568
9875.4193
9875.8146
9876.2735
9876.9902
9876.884
9879.6945
9879.8893
9879.1413
9878.7094
9878.2976
9877.9501
9877.8265
9877.7059
9877.7073
9877.685
9877.679
9877.6454
9877.6081
9877.5718
9877.5506
9877.5506
9877.5718
9877.6081
9877.6454
9877.679
9877.685
9877.7073
9877.7059
9877.8265
9877.9501
9878.2976
9878.7094
9879.1413
9879.8893
9879.6945
9882.5792
9882.8647
9882.0806
9881.6817
9881.2533
9880.9189
9880.8097
9880.7309
9880.7976
9880.8608
9880.9541
9881.018
9881.0658
9881.0911
9881.1021
9881.1021
9881.0911
9881.0658
9881.018
9880.9541
9880.8608
9880.7976
9880.7309
9880.8097
9880.9189
9881.2533
9881.6817
9882.0806
9882.8647
9882.5792
9885.5444
9885.9206
9885.0945
9884.7342
9884.2893
9883.9671
9883.8652
9883.8173
9883.9352
9884.0696
9884.2488
9884.4004
9884.5266
9884.6096
9884.6507
9884.6507
9884.6096
9884.5266
9884.4004
9884.2488
9884.0696
9883.9352
9883.8173
9883.8652
9883.9671
9884.2893
9884.7342
9885.0945
9885.9206
9885.5444
9888.5959
9889.0613
9888.1876
9887.8707
9887.4085
9887.098
9886.9974
9886.9703
9887.125
9887.3145
9887.5641
9887.7901
9887.9851
9888.1196
9888.1878
9888.1878
9888.1196
9887.9851
9887.7901
9887.5641
9887.3145
9887.125
9886.9703
9886.9974
9887.098
9887.4085
9887.8707
9888.1876
9889.0613
9888.5959
9891.738
9892.2912
9891.3653
9891.0947
9890.6131
9890.3144
9890.21
9890.1947
9890.3719
9890.6
9890.9022
9891.1869
9891.4384
9891.6162
9891.7075
9891.7075
9891.6162
9891.4384
9891.1869
9890.9023
9890.6
9890.3719
9890.1947
9890.2101
9890.3144
9890.6131
9891.0947
9891.3653
9892.2912
9891.738
9894.9746
9895.6143
9894.6327
9894.4092
9893.9054
9893.6184
9893.5056
9893.4939
9893.6801
9893.93
9894.2665
9894.5923
9894.8858
9895.0971
9895.2064
9895.2064
9895.0971
9894.8858
9894.5923
9894.2665
9893.93
9893.6801
9893.4939
9893.5056
9893.6184
9893.9054
9894.4092
9894.6327
9895.6143
9894.9746
9898.3089
9899.034
9897.9946
9897.817
9897.287
9897.0112
9896.8855
9896.87
9897.0527
9897.3083
9897.6601
9898.0086
9898.3284
9898.5619
9898.6838
9898.6838
9898.5619
9898.3284
9898.0086
9897.6601
9897.3083
9897.0527
9896.87
9896.8855
9897.0112
9897.287
9897.817
9897.9946
9899.034
9898.3089
9901.7449
9902.5534
9901.4551
9901.3204
9900.7595
9900.4932
9900.3497
9900.3239
9900.4914
9900.737
9901.086
9901.4389
9901.7688
9902.0127
9902.1416
9902.1416
9902.0127
9901.7688
9901.4389
9901.086
9900.737
9900.4914
9900.3239
9900.3497
9900.4932
9900.7595
9901.3204
9901.4551
9902.5534
9901.7449
9905.2885
9906.1744
9905.0171
9904.9215
9904.324
9904.0641
9903.8972
9903.8544
9903.9957
9904.2177
9904.5472
9904.8871
9905.2112
9905.4538
9905.5836
9905.5836
9905.4538
9905.2112
9904.8871
9904.5472
9904.2177
9903.9957
9903.8544
9903.8972
9904.0641
9904.324
9904.9215
9905.0171
9906.1744
9905.2885
9908.9425
9909.8982
9908.6828
9908.6217
9907.9809
9907.7233
9907.5263
9907.4596
9907.5649
9907.7512
9908.0465
9908.3574
9908.6608
9908.8908
9909.0154
9909.0154
9908.8908
9908.6608
9908.3574
9908.0465
9907.7512
9907.5649
9907.4596
9907.5263
9907.7233
9907.9809
9908.6217
9908.6828
9909.8982
9908.9425
9912.7093
9913.725
9912.453
9912.4217
9911.7307
9911.4703
9911.2358
9911.1383
9911.1987
9911.3386
9911.5864
9911.8543
9912.1236
9912.3303
9912.4438
9912.4438
9912.3303
9912.1236
9911.8543
9911.5864
9911.3386
9911.1987
9911.1383
9911.2358
9911.4703
9911.7307
9912.4217
9912.453
9913.725
9912.7093
9916.592
9917.6542
9916.3282
9916.3217
9915.574
9915.3045
9915.0246
9914.8897
9914.8968
9914.9806
9915.1695
9915.3822
9915.606
9915.7803
9915.8775
9915.8775
9915.7803
9915.606
9915.3822
9915.1695
9914.9806
9914.8968
9914.8897
9915.0247
9915.3045
9915.574
9916.3217
9916.3282
9917.6542
9916.592
9920.5923
9921.6875
9920.3093
9920.3216
9919.5109
9919.2259
9918.8926
9918.7135
9918.6592
9918.6783
9918.7986
9918.9463
9919.115
9919.2491
9919.3257
9919.3257
9919.2491
9919.115
9918.9463
9918.7986
9918.6783
9918.6592
9918.7135
9918.8926
9919.2259
9919.511
9920.3216
9920.3093
9921.6875
9920.5923
9924.7116
9925.8301
9924.3975
9924.4209
9923.542
9923.2346
9922.8401
9922.6101
9922.4863
9922.4332
9922.4771
9922.5519
9922.658
9922.7461
9922.7986
9922.7986
9922.7461
9922.658
9922.5519
9922.4771
9922.4332
9922.4863
9922.6101
9922.8401
9923.2346
9923.542
9924.4209
9924.3975
9925.8301
9924.7116
9928.9498
9930.0863
9928.593
9928.6193
9927.6671
9927.3301
9926.8662
9926.5789
9926.3792
9926.2475
9926.2083
9926.2046
9926.243
9926.2809
9926.307
9926.307
9926.2809
9926.243
9926.2046
9926.2083
9926.2475
9926.3792
9926.5789
9926.8662
9927.3301
9927.6671
9928.6193
9928.593
9930.0863
9928.9498
9933.3044
9934.4538
9932.8967
9932.9173
9931.8857
9931.5111
9930.9702
9930.6194
9930.3383
9930.1238
9929.9968
9929.9107
9929.878
9929.8634
9929.8618
9929.8618
9929.8634
9929.878
9929.9107
9929.9968
9930.1238
9930.3383
9930.6194
9930.9702
9931.5111
9931.8857
9932.9173
9932.8967
9934.4538
9933.3044
9937.7737
9938.9266
9937.3082
9937.314
9936.1974
9935.7775
9935.1525
9934.7322
9934.3647
9934.0646
9933.8475
9933.6767
9933.5717
9933.5038
9933.474
9933.474
9933.5038
9933.5717
9933.6767
9933.8475
9934.0646
9934.3647
9934.7322
9935.1525
9935.7775
9936.1974
9937.314
9937.3082
9938.9266
9937.7737
9942.3576
9943.5016
9941.8246
9941.8069
9940.6014
9940.1291
9939.4135
9938.9184
9938.4604
9938.073
9937.7654
9937.5101
9937.3328
9937.2122
9937.1545
9937.1545
9937.2122
9937.3328
9937.5101
9937.7654
9938.073
9938.4604
9938.9184
9939.4135
9940.1291
9940.6014
9941.8069
9941.8246
9943.5017
9942.3576
9947.0557
9948.1784
9946.4421
9946.3928
9945.0965
9944.5655
9943.7543
9943.18
9942.6282
9942.1525
9941.7555
9941.4181
9941.1704
9940.9989
9940.9146
9940.9146
9940.9989
9941.1704
9941.4181
9941.7555
9942.1525
9942.6282
9943.18
9943.7543
9944.5655
9945.0965
9946.3928
9946.4421
9948.1784
9947.0557
9951.8675
9952.9564
9951.1566
9951.0697
9949.6816
9949.0864
9948.1758
9947.5191
9946.8716
9946.3078
9945.8232
9945.4075
9945.0936
9944.8743
9944.7651
9944.7651
9944.8744
9945.0936
9945.4075
9945.8232
9946.3078
9946.8716
9947.5191
9948.1758
9949.0864
9949.6816
9951.0697
9951.1567
9952.9564
9951.8675
9956.7901
9957.8377
9955.9669
9955.8367
9954.3565
9953.6923
9952.6799
9951.9387
9951.1948
9950.5441
9949.9746
9949.4853
9949.1103
9948.8475
9948.7154
9948.7154
9948.8475
9949.1103
9949.4853
9949.9746
9950.5441
9951.1948
9951.9387
9952.6799
9953.6923
9954.3565
9955.8367
9955.9669
9957.8377
9956.7901
9961.8192
9962.8244
9960.8734
9960.6942
9959.1213
9958.3844
9957.2692
9956.4426
9955.603
9954.8676
9954.2168
9953.6588
9953.2283
9952.9265
9952.7742
9952.7742
9952.9265
9953.2283
9953.6588
9954.2168
9954.8676
9955.603
9956.4426
9957.2692
9958.3844
9959.1213
9960.6942
9960.8734
9962.8244
9961.8192
9966.9484
9967.9158
9965.8761
9965.643
9963.9773
9963.1648
9961.9469
9961.0349
9960.101
9959.2846
9958.5573
9957.9363
9957.4558
9957.12
9956.9502
9956.9502
9957.12
9957.4558
9957.9363
9958.5573
9959.2846
9960.101
9961.0349
9961.9469
9963.1648
9963.9773
9965.643
9965.8761
9967.9158
9966.9484
9972.1706
9973.1099
9970.9751
9970.6865
9968.9263
9968.0361
9966.7164
9965.7198
9964.6945
9963.8018
9963.0039
9962.326
9961.8013
9961.4364
9961.2519
9961.2519
9961.4364
9961.8013
9962.326
9963.0039
9963.8018
9964.6945
9965.7198
9966.7164
9968.0361
9968.9263
9970.6865
9970.9751
9973.1099
9972.1706
9977.4812
9978.4059
9976.1698
9975.8272
9973.9705
9973.0012
9971.5818
9970.5026
9969.3899
9968.4264
9967.564
9966.836
9966.2729
9965.8837
9965.6869
9965.6869
9965.8837
9966.2729
9966.836
9967.564
9968.4264
9969.3899
9970.5026
9971.5818
9973.0013
9973.9705
9975.8272
9976.1698
9978.406
9977.4812
9982.8783
9983.8041
9981.4596
9981.0653
9979.1108
9978.0633
9976.5473
9975.3888
9974.1939
9973.1654
9972.2453
9971.4737
9970.878
9970.4688
9970.2622
9970.2622
9970.4688
9970.878
9971.4737
9972.2453
9973.1654
9974.1939
9975.3888
9976.5473
9978.0633
9979.1108
9981.0653
9981.4596
9983.8041
9982.8783
9988.3609
9989.3055
9986.8472
9986.4009
9984.3487
9983.2258
9981.6176
9980.3845
9979.1135
9978.0262
9977.055
9976.2463
9975.6236
9975.1983
9974.9839
9974.9839
9975.1983
9975.6236
9976.2463
9977.055
9978.0262
9979.1135
9980.3845
9981.6176
9983.2258
9984.3487
9986.4009
9986.8472
9989.3055
9988.3609
9993.9278
9994.9102
9992.3324
9991.8351
9989.6872
9988.4928
9986.7979
9985.4961
9984.1555
9983.0162
9982.0004
9981.161
9980.5164
9980.0785
9979.8583
9979.8583
9980.0785
9980.5164
9981.161
9982.0004
9983.0162
9984.1555
9985.4961
9986.7979
9988.4928
9989.6872
9991.8351
9992.3324
9994.9102
9993.9278
9999.5782
10000.619
9997.913
9997.3707
9995.13
9993.8693
9992.094
9990.7301
9989.3272
9988.1427
9987.0889
9986.2245
9985.5627
9985.1153
9984.8909
9984.8909
9985.1153
9985.5627
9986.2245
9987.0889
9988.1427
9989.3272
9990.7301
9992.094
9993.8693
9995.13
9997.3707
9997.913
10000.619
9999.5782
10005.312
10006.436
10003.594
10003.012
10000.682
9999.361
9997.5121
9996.0934
9994.6358
9993.4129
9992.3275
9991.4435
9990.7687
9990.3145
9990.0872
9990.0872
9990.3145
9990.7687
9991.4435
9992.3275
9993.4129
9994.6358
9996.0934
9997.5121
9999.361
10000.682
10003.012
10003.594
10006.436
10005.312
10011.132
10012.368
10009.381
10008.766
10006.35
10004.974
10003.059
10001.593
10000.089
9998.8342
9997.7231
9996.8245
9996.1404
9995.6816
9995.4526
9995.4526
9995.6816
9996.1404
9996.8245
9997.7231
9998.8342
10000.089
10001.593
10003.059
10004.974
10006.35
10008.766
10009.381
10012.368
10011.132
10017.044
10018.423
10015.276
10014.634
10012.138
10010.715
10008.741
10007.236
10005.693
10004.414
10003.283
10002.374
10001.684
10001.222
10000.992
10000.992
10001.222
10001.684
10002.374
10003.283
10004.414
10005.693
10007.236
10008.741
10010.715
10012.138
10014.634
10015.276
10018.423
10017.044
10023.054
10024.605
10021.285
10020.625
10018.054
10016.592
10014.566
10013.03
10011.455
10010.158
10009.013
10008.098
10007.404
10006.941
10006.711
10006.711
10006.941
10007.404
10008.098
10009.013
10010.158
10011.455
10013.03
10014.566
10016.592
10018.054
10020.625
10021.285
10024.605
10023.054
10029.167
10030.925
10027.418
10026.748
10024.107
10022.612
10020.543
10018.983
10017.384
10016.075
10014.921
10014.003
10013.307
10012.845
10012.616
10012.616
10012.845
10013.307
10014.003
10014.921
10016.075
10017.384
10018.983
10020.543
10022.612
10024.107
10026.748
10027.418
10030.925
10029.167
10035.388
10037.39
10033.683
10033.014
10030.307
10028.787
10026.681
10025.103
10023.488
10022.172
10021.012
10020.095
10019.399
10018.939
10018.711
10018.711
10018.939
10019.399
10020.095
10021.012
10022.172
10023.488
10025.103
10026.681
10028.787
10030.307
10033.014
10033.683
10037.39
10035.388
10041.725
10044.007
10040.091
10039.43
10036.663
10035.125
10032.991
10031.402
10029.774
10028.457
10027.296
10026.382
10025.688
10025.23
10025.004
10025.004
10025.23
10025.688
10026.382
10027.296
10028.457
10029.774
10031.402
10032.991
10035.125
10036.663
10039.43
10040.091
10044.007
10041.725
10048.187
10050.783
10046.65
10046.008
10043.186
10041.638
10039.483
10037.89
10036.256
10034.941
10033.782
10032.873
10032.182
10031.728
10031.504
10031.504
10031.728
10032.182
10032.873
10033.782
10034.941
10036.256
10037.89
10039.483
10041.638
10043.186
10046.008
10046.65
10050.783
10048.187
10054.792
10057.738
10053.37
10052.756
10049.886
10048.337
10046.169
10044.578
10042.944
10041.635
10040.481
10039.578
10038.892
10038.443
10038.22
10038.22
10038.443
10038.892
10039.578
10040.481
10041.635
10042.944
10044.578
10046.169
10048.337
10049.886
10052.756
10053.37
10057.738
10054.792
10061.547
10064.898
10060.269
10059.694
10056.78
10055.235
10053.061
10051.479
10049.848
10048.549
10047.403
10046.509
10045.829
10045.385
10045.165
10045.165
10045.385
10045.829
10046.509
10047.403
10048.549
10049.848
10051.479
10053.061
10055.235
10056.78
10059.694
10060.269
10064.898
10061.547
10068.446
10072.285
10067.372
10066.845
10063.887
10062.351
10060.175
10058.606
10056.983
10055.696
10054.559
10053.676
10053.003
10052.565
10052.348
10052.348
10052.565
10053.003
10053.676
10054.559
10055.696
10056.983
10058.606
10060.175
10062.351
10063.887
10066.845
10067.372
10072.285
10068.446
10075.493
10079.916
10074.694
10074.227
10071.225
10069.7
10067.527
10065.973
10064.36
10063.088
10061.962
10061.09
10060.425
10059.993
10059.779
10059.779
10059.993
10060.425
10061.09
10061.962
10063.088
10064.36
10065.973
10067.527
10069.7
10071.225
10074.227
10074.694
10079.916
10075.493
10082.708
10087.802
10082.24
10081.846
10078.805
10077.295
10075.126
10073.587
10071.985
10070.727
10069.612
10068.751
10068.094
10067.668
10067.456
10067.456
10067.668
10068.094
10068.751
10069.612
10070.727
10071.985
10073.587
10075.126
10077.295
10078.805
10081.846
10082.24
10087.802
10082.708
10090.098
10095.952
10090.022
10089.707
10086.628
10085.136
10082.968
10081.441
10079.848
10078.603
10077.499
10076.648
10075.998
10075.577
10075.368
10075.368
10075.577
10075.998
10076.648
10077.499
10078.603
10079.848
10081.441
10082.968
10085.136
10086.628
10089.707
10090.022
10095.952
10090.098
10097.666
10104.377
10098.048
10097.818
10094.691
10093.217
10091.046
10089.529
10087.945
10086.712
10085.618
10084.777
10084.134
10083.718
10083.512
10083.512
10083.718
10084.134
10084.777
10085.618
10086.712
10087.945
10089.529
10091.046
10093.217
10094.691
10097.818
10098.048
10104.377
10097.666
10105.425
10113.087
10106.323
10106.189
10103
10101.544
10099.367
10097.859
10096.283
10095.062
10093.977
10093.145
10092.509
10092.099
10091.895
10091.895
10092.099
10092.509
10093.145
10093.977
10095.062
10096.283
10097.859
10099.367
10101.544
10103
10106.189
10106.323
10113.087
10105.425
10113.39
10122.088
10114.857
10114.836
10111.572
10110.132
10107.947
10106.447
10104.876
10103.663
10102.586
10101.763
10101.133
10100.728
10100.526
10100.526
10100.728
10101.133
10101.763
10102.586
10103.663
10104.876
10106.447
10107.947
10110.132
10111.572
10114.836
10114.857
10122.088
10113.39
10121.586
10131.381
10123.668
10123.778
10120.427
10119.001
10116.801
10115.3
10113.73
10112.524
10111.453
10110.635
10110.01
10109.609
10109.41
10109.41
10109.609
10110.01
10110.635
10111.453
10112.524
10113.73
10115.3
10116.801
10119.001
10120.427
10123.778
10123.668
10131.381
10121.586
10130.03
10140.963
10132.77
10133.033
10129.585
10128.164
10125.933
10124.421
10122.846
10121.641
10120.573
10119.76
10119.139
10118.741
10118.544
10118.544
10118.741
10119.139
10119.76
10120.573
10121.641
10122.846
10124.421
10125.933
10128.164
10129.585
10133.033
10132.77
10140.963
10130.03
10138.718
10150.837
10142.181
10142.613
10139.06
10137.636
10135.359
10133.832
10132.248
10131.04
10129.972
10129.161
10128.541
10128.146
10127.95
10127.95
10128.146
10128.541
10129.161
10129.972
10131.04
10132.248
10133.832
10135.359
10137.636
10139.06
10142.613
10142.181
10150.837
10138.718
10147.652
10161.006
10151.916
10152.526
10148.864
10147.426
10145.106
10143.568
10141.972
10140.758
10139.686
10138.874
10138.254
10137.861
10137.666
10137.666
10137.861
10138.254
10138.874
10139.686
10140.758
10141.972
10143.568
10145.106
10147.426
10148.864
10152.526
10151.916
10161.006
10147.652
10156.854
10171.483
10161.99
10162.78
10159.005
10157.541
10155.193
10153.642
10152.03
10150.805
10149.727
10148.91
10148.289
10147.895
10147.7
10147.7
10147.895
10148.289
10148.91
10149.727
10150.805
10152.03
10153.642
10155.193
10157.541
10159.005
10162.78
10161.99
10171.483
10156.854
10166.361
10182.276
10172.421
10173.386
10169.496
10167.994
10165.624
10164.054
10162.423
10161.183
10160.094
10159.27
10158.644
10158.248
10158.054
10158.054
10158.248
10158.644
10159.27
10160.094
10161.183
10162.423
10164.054
10165.624
10167.994
10169.496
10173.386
10172.421
10182.276
10166.361
10176.213
10193.367
10183.225
10184.37
10180.346
10178.803
10176.406
10174.809
10173.153
10171.894
10170.791
10169.956
10169.323
10168.924
10168.729
10168.729
10168.924
10169.323
10169.956
10170.791
10171.894
10173.153
10174.809
10176.406
10178.803
10180.346
10184.37
10183.225
10193.367
10176.213
10186.442
10204.735
10194.406
10195.737
10191.56
10189.975
10187.542
10185.909
10184.226
10182.943
10181.822
10180.973
10180.331
10179.927
10179.73
10179.73
10179.927
10180.331
10180.973
10181.822
10182.943
10184.226
10185.909
10187.542
10189.975
10191.56
10195.737
10194.406
10204.735
10186.442
10197.074
10216.363
10205.956
10207.454
10203.146
10201.525
10199.042
10197.366
10195.651
10194.34
10193.197
10192.33
10191.677
10191.267
10191.066
10191.066
10191.267
10191.677
10192.33
10193.197
10194.34
10195.651
10197.366
10199.042
10201.525
10203.146
10207.454
10205.956
10216.363
10197.074
10208.129
10228.245
10217.878
10219.508
10215.113
10213.467
10210.93
10209.205
10207.453
10206.107
10204.937
10204.049
10203.381
10202.962
10202.758
10202.758
10202.962
10203.381
10204.049
10204.937
10206.107
10207.453
10209.205
10210.93
10213.467
10215.113
10219.508
10217.878
10228.245
10208.129
10219.632
10240.373
10230.186
10231.914
10227.472
10225.808
10223.22
10221.448
10219.656
10218.272
10217.071
10216.158
10215.472
10215.043
10214.835
10214.835
10215.043
10215.472
10216.158
10217.071
10218.272
10219.656
10221.448
10223.22
10225.808
10227.472
10231.914
10230.186
10240.373
10219.632
10231.599
10252.744
10242.889
10244.685
10240.231
10238.553
10235.921
10234.103
10232.273
10230.849
10229.616
10228.675
10227.97
10227.53
10227.317
10227.317
10227.53
10227.97
10228.675
10229.616
10230.849
10232.273
10234.103
10235.921
10238.553
10240.231
10244.685
10242.889
10252.744
10231.599
10244.036
10265.379
10255.998
10257.828
10253.397
10251.704
10249.035
10247.175
10245.308
10243.844
10242.58
10241.61
10240.885
10240.433
10240.214
10240.214
10240.433
10240.885
10241.61
10242.58
10243.844
10245.308
10247.175
10249.035
10251.704
10253.397
10257.828
10255.998
10265.379
10244.036
10256.951
10278.349
10269.527
10271.342
10266.975
10265.267
10262.568
10260.67
10258.768
10257.266
10255.969
10254.971
10254.226
10253.76
10253.537
10253.537
10253.76
10254.226
10254.971
10255.969
10257.266
10258.768
10260.67
10262.568
10265.267
10266.975
10271.342
10269.527
10278.349
10256.951
10270.354
10291.702
10283.48
10285.229
10280.97
10279.248
10276.527
10274.594
10272.661
10271.122
10269.794
10268.768
10268.002
10267.524
10267.295
10267.295
10267.524
10268.002
10268.768
10269.794
10271.122
10272.661
10274.594
10276.527
10279.248
10280.97
10285.229
10283.48
10291.702
10270.354
10284.245
10305.423
10297.851
10299.505
10295.389
10293.652
10290.919
10288.956
10286.996
10285.422
10284.065
10283.011
10282.225
10281.736
10281.502
10281.502
10281.736
10282.225
10283.011
10284.065
10285.422
10286.996
10288.956
10290.919
10293.652
10295.389
10299.505
10297.851
10305.423
10284.245
10298.63
10319.485
10312.618
10314.181
10310.244
10308.489
10305.752
10303.763
10301.78
10300.176
10298.792
10297.712
10296.908
10296.408
10296.169
10296.169
10296.408
10296.908
10297.712
10298.792
10300.176
10301.78
10303.763
10305.752
10308.489
10310.244
10314.181
10312.618
10319.485
10298.63
10313.515
10333.874
10327.769
10329.27
10325.536
10323.762
10321.032
10319.022
10317.023
10315.393
10313.986
10312.883
10312.063
10311.553
10311.311
10311.311
10311.553
10312.063
10312.883
10313.986
10315.393
10317.023
10319.022
10321.032
10323.762
10325.536
10329.27
10327.769
10333.874
10313.515
10328.886
10348.638
10343.305
10344.776
10341.264
10339.477
10336.766
10334.742
10332.732
10331.081
10329.656
10328.534
10327.7
10327.183
10326.938
10326.938
10327.183
10327.7
10328.534
10329.656
10331.081
10332.732
10334.742
10336.766
10339.477
10341.264
10344.776
10343.306
10348.638
10328.886
10344.74
10363.824
10359.189
10360.703
10357.429
10355.639
10352.959
10350.927
10348.916
10347.25
10345.812
10344.674
10343.83
10343.308
10343.062
10343.062
10343.308
10343.83
10344.674
10345.812
10347.25
10348.916
10350.927
10352.959
10355.639
10357.429
10360.703
10359.189
10363.824
10344.74
10361.064
10379.461
10375.444
10377.068
10374.037
10372.253
10369.616
10367.583
10365.579
10363.907
10362.462
10361.314
10360.464
10359.941
10359.694
10359.694
10359.941
10360.464
10361.314
10362.462
10363.907
10365.579
10367.583
10369.616
10372.253
10374.037
10377.068
10375.444
10379.461
10361.064
10377.814
10395.566
10392.145
10393.893
10391.093
10389.325
10386.741
10384.717
10382.729
10381.058
10379.613
10378.462
10377.61
10377.088
10376.844
10376.844
10377.088
10377.61
10378.462
10379.613
10381.058
10382.729
10384.717
10386.741
10389.325
10391.093
10393.893
10392.145
10395.566
10377.814
10394.976
10412.136
10409.299
10411.178
10408.6
10406.86
10404.34
10402.334
10400.371
10398.71
10397.273
10396.124
10395.275
10394.759
10394.519
10394.519
10394.759
10395.275
10396.124
10397.273
10398.71
10400.371
10402.334
10404.34
10406.86
10408.6
10411.178
10409.299
10412.136