/*--------------------------------*- C++ -*----------------------------------*\
  =========                 |
  \\      /  F ield         | OpenFOAM: The Open Source CFD Toolbox
   \\    /   O peration     | Website:  https://openfoam.org
    \\  /    A nd           | Version:  8
     \\/     M anipulation  |
\*---------------------------------------------------------------------------*/
/*   Windows 32 and 64 bit porting by blueCAPE: http://www.bluecape.com.pt   *\
|  Based on Windows porting (2.0.x v4) by Symscape: http://www.symscape.com   |
\*---------------------------------------------------------------------------*/
FoamFile
{
    version     2.0;
    format      ascii;
    class       volScalarField;
    location    "60";
    object      epsilon;
}
// * * * * * * * * * * * * * * * * * * * * * * * * * * * * * * * * * * * * * //

dimensions      [0 2 -3 0 0 0 0];

internalField   nonuniform List<scalar> 
283500
(
4.4328361e-05
4.4146603e-05
4.4092627e-05
4.4081308e-05
4.407357e-05
4.4067961e-05
4.4063632e-05
4.4060328e-05
4.4057882e-05
4.4056115e-05
4.405488e-05
4.4054068e-05
4.4053574e-05
4.4053264e-05
4.4053091e-05
4.4053091e-05
4.4053264e-05
4.4053574e-05
4.4054068e-05
4.405488e-05
4.4056115e-05
4.4057882e-05
4.4060328e-05
4.4063632e-05
4.4067961e-05
4.407357e-05
4.4081308e-05
4.4092627e-05
4.4146603e-05
4.4328361e-05
4.5199195e-05
4.467222e-05
4.4522217e-05
4.4490246e-05
4.4469235e-05
4.4454042e-05
4.4442351e-05
4.4433435e-05
4.4426823e-05
4.442204e-05
4.4418696e-05
4.4416494e-05
4.4415154e-05
4.4414314e-05
4.4413847e-05
4.4413847e-05
4.4414314e-05
4.4415154e-05
4.4416494e-05
4.4418696e-05
4.442204e-05
4.4426823e-05
4.4433435e-05
4.4442351e-05
4.4454042e-05
4.4469235e-05
4.4490246e-05
4.4522217e-05
4.467222e-05
4.5199196e-05
4.6525952e-05
4.5464862e-05
4.5177391e-05
4.5115546e-05
4.5076274e-05
4.5048044e-05
4.5026503e-05
4.5010145e-05
4.4998017e-05
4.4989239e-05
4.49831e-05
4.4979055e-05
4.4976594e-05
4.4975054e-05
4.49742e-05
4.49742e-05
4.4975054e-05
4.4976594e-05
4.4979055e-05
4.49831e-05
4.4989239e-05
4.4998017e-05
4.5010145e-05
4.5026503e-05
4.5048044e-05
4.5076274e-05
4.5115546e-05
4.5177391e-05
4.5464862e-05
4.6525953e-05
4.8292806e-05
4.6519211e-05
4.6051333e-05
4.5950172e-05
4.588806e-05
4.5843709e-05
4.5810064e-05
4.5784595e-05
4.5765754e-05
4.5752138e-05
4.5742612e-05
4.5736335e-05
4.5732516e-05
4.573013e-05
4.5728809e-05
4.5728809e-05
4.573013e-05
4.5732516e-05
4.5736335e-05
4.5742612e-05
4.5752138e-05
4.5765754e-05
4.5784595e-05
4.5810064e-05
4.5843709e-05
4.588806e-05
4.5950172e-05
4.6051333e-05
4.6519211e-05
4.8292806e-05
5.0470234e-05
4.7828654e-05
4.7137219e-05
4.6987836e-05
4.6898402e-05
4.6835058e-05
4.6787296e-05
4.675129e-05
4.6724679e-05
4.6705445e-05
4.6691993e-05
4.6683143e-05
4.6677757e-05
4.6674398e-05
4.6672541e-05
4.6672541e-05
4.6674398e-05
4.6677757e-05
4.6683143e-05
4.6691993e-05
4.6705445e-05
4.6724679e-05
4.675129e-05
4.6787296e-05
4.6835058e-05
4.6898402e-05
4.6987836e-05
4.7137219e-05
4.7828654e-05
5.0470235e-05
5.3023604e-05
4.9383196e-05
4.8425733e-05
4.8219813e-05
4.8099001e-05
4.801432e-05
4.7950875e-05
4.7903282e-05
4.7868159e-05
4.7842792e-05
4.7825056e-05
4.7813381e-05
4.7806279e-05
4.7801856e-05
4.7799415e-05
4.7799415e-05
4.7801856e-05
4.7806279e-05
4.7813381e-05
4.7825056e-05
4.7842792e-05
4.7868159e-05
4.7903282e-05
4.7950875e-05
4.801432e-05
4.8099001e-05
4.8219813e-05
4.8425733e-05
4.9383196e-05
5.3023605e-05
5.5920523e-05
5.1171549e-05
4.9906909e-05
4.9636315e-05
4.948053e-05
4.9372656e-05
4.9292366e-05
4.9232486e-05
4.9188384e-05
4.9156573e-05
4.9134351e-05
4.911973e-05
4.9110849e-05
4.9105324e-05
4.9102276e-05
4.9102276e-05
4.9105324e-05
4.9110849e-05
4.911973e-05
4.9134351e-05
4.9156573e-05
4.9188384e-05
4.9232486e-05
4.9292366e-05
4.9372656e-05
4.948053e-05
4.9636315e-05
4.9906909e-05
5.1171549e-05
5.5920525e-05
5.9134197e-05
5.3183119e-05
5.1571562e-05
5.1227925e-05
5.1033945e-05
5.0901435e-05
5.0803479e-05
5.0730897e-05
5.0677583e-05
5.0639197e-05
5.0612415e-05
5.0594819e-05
5.0584153e-05
5.0577527e-05
5.0573867e-05
5.0573867e-05
5.0577527e-05
5.0584153e-05
5.0594819e-05
5.0612415e-05
5.0639197e-05
5.0677583e-05
5.0730897e-05
5.0803479e-05
5.0901435e-05
5.1033945e-05
5.1227925e-05
5.1571562e-05
5.3183119e-05
5.9134199e-05
6.2644903e-05
5.5409275e-05
5.3412151e-05
5.2986552e-05
5.2751326e-05
5.2593028e-05
5.2476847e-05
5.239139e-05
5.2328819e-05
5.2283879e-05
5.2252574e-05
5.2232049e-05
5.2219645e-05
5.221195e-05
5.2207691e-05
5.2207691e-05
5.221195e-05
5.2219645e-05
5.2232049e-05
5.2252574e-05
5.2283879e-05
5.2328819e-05
5.239139e-05
5.2476847e-05
5.2593028e-05
5.2751326e-05
5.2986552e-05
5.3412151e-05
5.5409275e-05
6.2644905e-05
6.6440496e-05
5.7843959e-05
5.5423193e-05
5.4905938e-05
5.4626416e-05
5.4441344e-05
5.4306564e-05
5.4208233e-05
5.4136513e-05
5.408516e-05
5.4049462e-05
5.4026118e-05
5.4012067e-05
5.4003362e-05
5.3998531e-05
5.3998531e-05
5.4003362e-05
5.4012067e-05
5.4026118e-05
5.4049462e-05
5.408516e-05
5.4136513e-05
5.4208233e-05
5.4306564e-05
5.4441344e-05
5.4626416e-05
5.4905938e-05
5.5423193e-05
5.7843959e-05
6.6440499e-05
7.0516287e-05
6.0483911e-05
5.7601323e-05
5.6981808e-05
5.6654801e-05
5.6442021e-05
5.628838e-05
5.6177312e-05
5.6096668e-05
5.6039145e-05
5.5999262e-05
5.5973269e-05
5.5957702e-05
5.5948072e-05
5.5942706e-05
5.5942706e-05
5.5948072e-05
5.5957702e-05
5.5973269e-05
5.5999262e-05
5.6039145e-05
5.6096668e-05
5.6177312e-05
5.628838e-05
5.6442021e-05
5.6654801e-05
5.6981808e-05
5.7601323e-05
6.0483911e-05
7.0516291e-05
7.4874787e-05
6.3328571e-05
5.994519e-05
5.9211821e-05
5.8833886e-05
5.8592416e-05
5.84197e-05
5.8296118e-05
5.8206874e-05
5.8143512e-05
5.8099726e-05
5.8071308e-05
5.8054397e-05
5.8043951e-05
5.8038099e-05
5.8038099e-05
5.8043951e-05
5.8054397e-05
5.8071308e-05
5.8099726e-05
5.8143512e-05
5.8206874e-05
5.8296118e-05
5.84197e-05
5.8592416e-05
5.8833886e-05
5.9211821e-05
5.994519e-05
6.3328571e-05
7.4874791e-05
7.9525518e-05
6.6379935e-05
6.2455312e-05
6.1595433e-05
6.1162797e-05
6.089151e-05
6.0699494e-05
6.0563675e-05
6.046623e-05
6.0397442e-05
6.0350102e-05
6.0319539e-05
6.0301497e-05
6.0290373e-05
6.0284099e-05
6.0284099e-05
6.0290373e-05
6.0301497e-05
6.0319539e-05
6.0350102e-05
6.0397442e-05
6.046623e-05
6.0563675e-05
6.0699494e-05
6.089151e-05
6.1162797e-05
6.1595433e-05
6.2455312e-05
6.6379935e-05
7.9525523e-05
8.4484933e-05
6.964254e-05
6.5133884e-05
6.4133748e-05
6.3642248e-05
6.3339813e-05
6.3128201e-05
6.2980435e-05
6.2875246e-05
6.2801516e-05
6.2751044e-05
6.2718675e-05
6.269976e-05
6.2688126e-05
6.2681506e-05
6.2681506e-05
6.2688126e-05
6.269976e-05
6.2718675e-05
6.2751044e-05
6.2801516e-05
6.2875246e-05
6.2980435e-05
6.3128201e-05
6.3339813e-05
6.3642248e-05
6.4133748e-05
6.5133885e-05
6.9642541e-05
8.4484938e-05
8.9776724e-05
7.3123477e-05
6.7984648e-05
6.6829396e-05
6.6274453e-05
6.5939278e-05
6.570767e-05
6.5548224e-05
6.5435783e-05
6.5357662e-05
6.5304546e-05
6.5270772e-05
6.5251293e-05
6.5239351e-05
6.5232478e-05
6.5232478e-05
6.5239351e-05
6.5251293e-05
6.5270772e-05
6.5304546e-05
6.5357662e-05
6.5435783e-05
6.5548224e-05
6.570767e-05
6.5939278e-05
6.6274453e-05
6.6829396e-05
6.7984648e-05
7.3123477e-05
8.9776731e-05
9.543185e-05
7.6832454e-05
7.101297e-05
6.9686489e-05
6.906309e-05
6.8693288e-05
6.844114e-05
6.8270233e-05
6.8151049e-05
6.8069138e-05
6.8013933e-05
6.7979219e-05
6.7959538e-05
6.794753e-05
6.7940515e-05
6.7940515e-05
6.794753e-05
6.7959538e-05
6.7979219e-05
6.8013933e-05
6.8069138e-05
6.8151049e-05
6.8270233e-05
6.844114e-05
6.8693288e-05
6.906309e-05
6.9686489e-05
7.101297e-05
7.6832455e-05
9.5431858e-05
0.00010148754
8.0781886e-05
7.4225903e-05
7.271062e-05
7.2013302e-05
7.1606674e-05
7.1333274e-05
7.1151052e-05
7.1025624e-05
7.0940562e-05
7.0883886e-05
7.0848761e-05
7.0829297e-05
7.0817505e-05
7.0810478e-05
7.0810478e-05
7.0817505e-05
7.0829297e-05
7.0848761e-05
7.0883886e-05
7.0940562e-05
7.1025624e-05
7.1151052e-05
7.1333274e-05
7.1606674e-05
7.2013302e-05
7.271062e-05
7.4225903e-05
8.0781887e-05
0.00010148755
0.00010798601
8.4986992e-05
7.7632281e-05
7.590891e-05
7.5131723e-05
7.4685777e-05
7.4390231e-05
7.4196732e-05
7.4065528e-05
7.3977976e-05
7.3920494e-05
7.3885549e-05
7.3866781e-05
7.3855534e-05
7.3848646e-05
7.3848646e-05
7.3855534e-05
7.3866781e-05
7.3885549e-05
7.3920494e-05
7.3977976e-05
7.4065528e-05
7.4196732e-05
7.4390231e-05
7.4685777e-05
7.5131723e-05
7.590891e-05
7.7632281e-05
8.4986993e-05
0.00010798603
0.00011497327
8.946593e-05
8.1242879e-05
7.9290125e-05
7.8426569e-05
7.7938532e-05
7.7619761e-05
7.7414882e-05
7.7278319e-05
7.7188945e-05
7.7131362e-05
7.7097243e-05
7.7079703e-05
7.7069375e-05
7.7062797e-05
7.7062797e-05
7.7069375e-05
7.7079703e-05
7.7097243e-05
7.7131362e-05
7.7188945e-05
7.7278319e-05
7.7414883e-05
7.7619761e-05
7.7938532e-05
7.8426569e-05
7.9290125e-05
8.1242879e-05
8.9465931e-05
0.00011497328
0.00012249821
9.4239928e-05
8.5070593e-05
8.2864813e-05
8.1907745e-05
8.1374562e-05
8.1031311e-05
8.0814791e-05
8.0673209e-05
8.0582669e-05
8.0525715e-05
8.0493111e-05
8.0477384e-05
8.0468395e-05
8.0462318e-05
8.0462318e-05
8.0468395e-05
8.0477384e-05
8.0493111e-05
8.0525715e-05
8.0582669e-05
8.0673209e-05
8.0814791e-05
8.1031311e-05
8.1374562e-05
8.1907745e-05
8.2864813e-05
8.5070593e-05
9.4239929e-05
0.00012249822
0.00013061224
9.933344e-05
8.913067e-05
8.6645466e-05
8.5586987e-05
8.500528e-05
8.4636134e-05
8.4407551e-05
8.4261193e-05
8.4170113e-05
8.4114526e-05
8.4084162e-05
8.4070875e-05
8.4063684e-05
8.4058318e-05
8.4058318e-05
8.4063684e-05
8.4070875e-05
8.4084162e-05
8.4114526e-05
8.4170113e-05
8.4261193e-05
8.4407551e-05
8.4636134e-05
8.500528e-05
8.5586987e-05
8.6645466e-05
8.913067e-05
9.9333441e-05
0.00013061225
0.00013936936
0.00010477437
9.3440998e-05
9.0646744e-05
8.9478044e-05
8.8844072e-05
8.844746e-05
8.8206244e-05
8.8055237e-05
8.7964182e-05
8.7910694e-05
8.7883312e-05
8.7873126e-05
8.7868229e-05
8.78638e-05
8.78638e-05
8.7868229e-05
8.7873126e-05
8.7883312e-05
8.7910694e-05
8.7964182e-05
8.8055237e-05
8.8206244e-05
8.844746e-05
8.8844073e-05
8.9478044e-05
9.0646744e-05
9.3440998e-05
0.00010477437
0.00013936938
0.00014882677
0.00011059433
9.8022428e-05
9.488573e-05
9.3596897e-05
9.290651e-05
9.2480697e-05
9.2226131e-05
9.2070481e-05
9.1979932e-05
9.1929245e-05
9.1905593e-05
9.1899186e-05
9.1897104e-05
9.1893847e-05
9.1893847e-05
9.1897104e-05
9.1899186e-05
9.1905593e-05
9.1929245e-05
9.1979932e-05
9.2070481e-05
9.2226131e-05
9.2480697e-05
9.290651e-05
9.3596897e-05
9.488573e-05
9.8022428e-05
0.00011059433
0.00014882679
0.00015904579
0.00011682898
0.00010289913
9.9382235e-05
9.7962015e-05
9.7210575e-05
9.6753648e-05
9.6484881e-05
9.6324479e-05
9.6234803e-05
9.6187566e-05
9.616838e-05
9.6166433e-05
9.6167709e-05
9.6165868e-05
9.6165868e-05
9.6167709e-05
9.6166433e-05
9.616838e-05
9.6187566e-05
9.6234803e-05
9.6324479e-05
9.6484881e-05
9.6753648e-05
9.7210575e-05
9.7962015e-05
9.9382235e-05
0.00010289913
0.00011682898
0.00015904581
0.00017009337
0.00012351845
0.00010809906
0.00010415918
0.00010259468
0.00010177696
0.00010128681
0.00010100285
0.00010083748
0.00010074893
0.00010070571
0.00010069168
0.00010069488
0.00010070007
0.0001006999
0.0001006999
0.00010070007
0.00010069488
0.00010069168
0.00010070571
0.00010074893
0.00010083748
0.00010100285
0.00010128681
0.00010177696
0.00010259468
0.00010415918
0.00010809906
0.00012351845
0.0001700934
0.00018204394
0.0001307077
0.00011365438
0.00010924303
0.00010751939
0.00010662944
0.0001061037
0.00010580342
0.00010563277
0.00010554547
0.00010550673
0.00010549851
0.00010550752
0.0001055172
0.00010551896
0.00010551896
0.0001055172
0.00010550752
0.00010549851
0.00010550673
0.00010554547
0.00010563277
0.00010580342
0.0001061037
0.00010662944
0.00010751939
0.00010924303
0.00011365438
0.0001307077
0.00018204397
0.00019498139
0.00013844693
0.00011960198
0.00011466423
0.00011276424
0.00011179524
0.00011123127
0.00011091338
0.00011073705
0.00011065105
0.00011061713
0.00011061525
0.00011063073
0.00011064548
0.00011064943
0.00011064943
0.00011064548
0.00011063073
0.00011061525
0.00011061713
0.00011065105
0.00011073705
0.00011091338
0.00011123127
0.00011179524
0.00011276424
0.00011466423
0.00011960198
0.00013844693
0.00019498142
0.00020900156
0.00014679188
0.00012598379
0.00012045762
0.00011836131
0.00011730545
0.00011670028
0.00011636331
0.00011618085
0.00011609611
0.00011606725
0.00011607216
0.00011609472
0.00011611513
0.00011612154
0.00011612154
0.00011611513
0.00011609472
0.00011607216
0.00011606725
0.00011609611
0.00011618085
0.00011636331
0.00011670028
0.00011730545
0.00011836131
0.00012045762
0.00012598379
0.00014679188
0.0002090016
0.0002242152
0.00015580402
0.00013284718
0.00012666278
0.00012434703
0.00012319533
0.00012254561
0.00012218793
0.00012199882
0.00012191525
0.00012189161
0.00012190363
0.00012193386
0.00012196051
0.00012196969
0.00012196969
0.00012196051
0.00012193386
0.00012190363
0.00012189161
0.00012191525
0.00012199882
0.00012218793
0.00012254561
0.00012319533
0.00012434703
0.00012666278
0.00013284718
0.00015580402
0.00022421524
0.0002407512
0.00016555107
0.00014024521
0.00013332433
0.00013076249
0.00012950465
0.00012880661
0.00012842644
0.00012823009
0.00012814755
0.00012812924
0.00012814864
0.00012818704
0.00012822053
0.00012823279
0.00012823279
0.00012822053
0.00012818704
0.00012814864
0.00012812924
0.00012814755
0.00012823009
0.00012842644
0.00012880661
0.00012950465
0.00013076249
0.00013332433
0.00014024521
0.00016555107
0.00024075124
0.00025876026
0.00017610766
0.00014823701
0.00014049223
0.00013765369
0.00013627789
0.00013552733
0.00013512274
0.00013491856
0.0001348369
0.00013482397
0.00013485093
0.00013489796
0.00013493889
0.00013495457
0.00013495457
0.00013493889
0.00013489796
0.00013485093
0.00013482397
0.0001348369
0.00013491856
0.00013512274
0.00013552733
0.00013627789
0.00013765369
0.00014049223
0.00014823701
0.00017610767
0.00025876031
0.00027841909
0.00018755622
0.00015688818
0.00014822206
0.00014507179
0.00014356453
0.00014275671
0.00014232564
0.00014211307
0.00014203211
0.00014202464
0.0001420593
0.00014211536
0.00014216433
0.00014218383
0.00014218383
0.00014216433
0.00014211536
0.0001420593
0.00014202464
0.00014203211
0.00014211307
0.00014232564
0.00014275671
0.00014356453
0.00014507179
0.00014822206
0.00015688818
0.00018755623
0.00027841915
0.00029993502
0.0001999877
0.00016627106
0.00015657526
0.00015307322
0.00015141908
0.00015054862
0.00015008887
0.00014986737
0.000149787
0.00014978506
0.00014982753
0.00014989301
0.00014995065
0.00014997443
0.00014997443
0.00014995065
0.00014989301
0.00014982753
0.00014978506
0.000149787
0.00014986737
0.00015008887
0.00015054862
0.00015141908
0.00015307322
0.00015657526
0.00016627107
0.0001999877
0.00029993508
0.00032355217
0.00021350301
0.00017646552
0.00016561956
0.00016172013
0.00015990143
0.00015896223
0.00015847141
0.00015824048
0.00015816062
0.00015816431
0.0001582147
0.00015828998
0.00015835701
0.00015838558
0.00015838558
0.00015835701
0.00015828998
0.0001582147
0.00015816431
0.00015816062
0.00015824048
0.00015847141
0.00015896223
0.00015990143
0.00016172013
0.00016561956
0.00017646552
0.00021350302
0.00032355224
0.00034955823
0.00022821447
0.00018755954
0.00017542938
0.00017108056
0.00016907709
0.00016806211
0.00016753759
0.00016729672
0.00016721737
0.00016722688
0.00016728531
0.00016737079
0.00016744807
0.000167482
0.000167482
0.00016744807
0.00016737079
0.00016728531
0.00016722688
0.00016721737
0.00016729672
0.00016753759
0.00016806211
0.00016907709
0.00017108056
0.00017542938
0.00018755954
0.00022821448
0.00034955831
0.00037829227
0.00024424751
0.00019964998
0.00018608624
0.00018122873
0.00017901729
0.00017791836
0.00017735718
0.0001771059
0.00017702714
0.00017704275
0.00017710942
0.00017720555
0.00017729403
0.00017733398
0.00017733398
0.00017729403
0.00017720555
0.00017710942
0.00017704275
0.00017702714
0.0001771059
0.00017735718
0.00017791836
0.00017901729
0.00018122873
0.00018608624
0.00019964998
0.00024424751
0.00037829237
0.00041015443
0.00026174326
0.00021284393
0.00019767959
0.00019224566
0.00018979956
0.00018860714
0.00018800591
0.00018774371
0.00018766574
0.00018768782
0.000187763
0.00018787035
0.00018797108
0.00018801782
0.00018801782
0.00018797108
0.00018787035
0.000187763
0.00018768782
0.00018766574
0.00018774371
0.00018800591
0.00018860714
0.00018979956
0.00019224566
0.00019767959
0.00021284393
0.00026174327
0.00041015453
0.00044561863
0.0002808612
0.00022726
0.00021030756
0.00020421975
0.00020150817
0.00020021101
0.00019956584
0.00019929212
0.00019921516
0.00019924419
0.00019932824
0.00019944748
0.00019956169
0.00019961614
0.00019961614
0.00019956169
0.00019944748
0.00019932824
0.00019924419
0.00019921516
0.00019929212
0.00019956584
0.00020021101
0.00020150817
0.00020421975
0.00021030757
0.00022726
0.00028086121
0.00044561875
0.00048524456
0.0003017825
0.00024303003
0.00022407795
0.00021724747
0.00021423461
0.00021281938
0.0002121257
0.00021183969
0.00021176399
0.0002118005
0.00021189393
0.00021202586
0.00021215495
0.00021221819
0.00021221819
0.00021215495
0.00021202586
0.00021189393
0.0002118005
0.00021176399
0.00021183969
0.0002121257
0.00021281938
0.00021423461
0.00021724747
0.00022407795
0.00024303003
0.00030178251
0.00048524469
0.00052969494
0.00032471472
0.00026030162
0.00023910981
0.0002314345
0.00022807868
0.00022652955
0.00022578185
0.00022548248
0.00022540827
0.00022545288
0.0002255563
0.00022570191
0.00022584748
0.00022592077
0.00022592077
0.00022584748
0.00022570191
0.0002255563
0.00022545288
0.00022540827
0.00022548248
0.00022578185
0.00022652955
0.00022807868
0.0002314345
0.00023910981
0.00026030162
0.00032471473
0.0005296951
0.00057975264
0.00034989668
0.00027924066
0.00025553504
0.0002468969
0.00024314941
0.00024144744
0.00024063904
0.0002403248
0.00024025227
0.00024030568
0.00024041983
0.00024058029
0.00024074417
0.00024082894
0.00024082894
0.00024074417
0.00024058029
0.00024041983
0.00024030568
0.00024025227
0.0002403248
0.00024063904
0.00024144744
0.00024314941
0.0002468969
0.00025553504
0.00027924066
0.00034989669
0.00057975281
0.00063634382
0.00037760393
0.00030003441
0.00027350043
0.0002637625
0.00025956619
0.00025768864
0.00025681132
0.00025648016
0.0002564094
0.00025647238
0.00025659812
0.00025677482
0.00025695907
0.00025705695
0.00025705695
0.00025695907
0.00025677482
0.00025659812
0.00025647238
0.0002564094
0.00025648016
0.00025681132
0.00025768864
0.00025956619
0.0002637625
0.00027350043
0.00030003442
0.00037760394
0.00063634402
0.00070056295
0.00040815647
0.0003228959
0.00029317047
0.00028217279
0.00027746016
0.00027537964
0.00027442332
0.00027407281
0.00027400378
0.00027407714
0.00027421553
0.00027441006
0.00027461698
0.00027472979
0.00027472979
0.00027461698
0.00027441006
0.00027421553
0.00027407714
0.00027400377
0.00027407281
0.00027442332
0.00027537964
0.00027746015
0.00028217279
0.00029317047
0.0003228959
0.00040815648
0.00070056318
0.00077370209
0.00044192774
0.00034806767
0.00031472991
0.00030228522
0.0002969766
0.00029466008
0.00029361233
0.00029323874
0.00029317158
0.00029325629
0.00029340857
0.00029362279
0.00029385489
0.00029398461
0.00029398461
0.00029385489
0.00029362279
0.00029340857
0.00029325629
0.00029317158
0.00029323874
0.00029361233
0.00029466008
0.00029697659
0.00030228522
0.00031472991
0.00034806767
0.00044192775
0.00077370235
0.00085728385
0.00047935657
0.00037582627
0.00033838674
0.00032427603
0.00031827689
0.00031568447
0.00031452989
0.00031412831
0.00031406242
0.00031415986
0.00031432749
0.00031456355
0.00031482361
0.00031497241
0.00031497241
0.00031482361
0.00031456355
0.00031432749
0.00031415985
0.00031406242
0.00031412831
0.00031452989
0.00031568447
0.00031827689
0.00032427603
0.00033838674
0.00037582627
0.00047935659
0.00085728415
0.00095309961
0.00052095604
0.00040648795
0.00036437723
0.00034834329
0.00034154122
0.00033862466
0.0003373442
0.00033690821
0.0003368425
0.00033695373
0.00033713875
0.00033739911
0.00033769024
0.00033786048
0.00033786048
0.00033769024
0.00033739911
0.00033713875
0.00033695373
0.0003368425
0.0003369082
0.0003373442
0.00033862466
0.00034154122
0.00034834329
0.00036437723
0.00040648795
0.00052095606
0.00095309995
0.001063249
0.00056732639
0.0004404153
0.00039296994
0.00037471018
0.00036697138
0.00036367235
0.00036224245
0.00036176369
0.00036169649
0.00036182235
0.00036202717
0.00036231472
0.00036264032
0.00036283458
0.00036283458
0.00036264032
0.00036231472
0.00036202716
0.00036182235
0.00036169649
0.00036176369
0.00036224245
0.00036367235
0.00036697138
0.00037471018
0.00039296994
0.0004404153
0.00056732641
0.0010632494
0.0011901814
0.00061916939
0.00047802414
0.00042447043
0.00040362872
0.00039479379
0.00039104178
0.00038943338
0.00038890111
0.00038882989
0.00038897111
0.00038919784
0.00038951638
0.00038988029
0.00039010128
0.00039010128
0.00038988029
0.00038951638
0.00038919784
0.00038897111
0.00038882989
0.00038890111
0.00038943338
0.00039104178
0.00039479379
0.00040362872
0.00042447043
0.00047802414
0.00061916941
0.0011901819
0.0013367437
0.00067730346
0.0005197915
0.00045922738
0.0004353846
0.00042526372
0.00042097361
0.00041915088
0.00041855141
0.00041847258
0.00041862965
0.00041888063
0.00041923377
0.00041964022
0.00041989093
0.00041989093
0.00041964022
0.00041923377
0.00041888063
0.00041862965
0.00041847258
0.00041855141
0.00041915088
0.00042097361
0.00042526371
0.0004353846
0.00045922738
0.0005197915
0.00067730349
0.0013367442
0.0015062295
0.00074267857
0.00056626327
0.00049763845
0.00047030196
0.00045866918
0.00045373831
0.00045165725
0.00045097323
0.00045088187
0.000451055
0.00045133271
0.00045172446
0.00045217805
0.00045246178
0.00045246178
0.00045217805
0.00045172446
0.00045133271
0.00045105499
0.00045088187
0.00045097322
0.00045165725
0.00045373831
0.00045866917
0.00047030196
0.00049763844
0.00056626327
0.0007426786
0.0015062301
0.0017024302
0.00081639548
0.00061806223
0.00054015659
0.00050874836
0.0004953352
0.00048963998
0.00048724669
0.00048645627
0.00048634571
0.00048653465
0.00048684174
0.00048727652
0.00048778228
0.00048810261
0.00048810261
0.00048778228
0.00048727652
0.00048684174
0.00048653465
0.00048634571
0.00048645627
0.00048724669
0.00048963998
0.00049533519
0.00050874836
0.00054015659
0.00061806223
0.00081639552
0.0017024309
0.0019296956
0.00089971115
0.00067589781
0.0005872975
0.00055114119
0.0005356294
0.00052902144
0.00052625009
0.00052532591
0.00052518715
0.00052539097
0.00052573024
0.00052621288
0.00052677628
0.00052713707
0.00052713707
0.00052677628
0.00052621288
0.00052573024
0.00052539097
0.00052518714
0.00052532591
0.00052625009
0.00052902143
0.00053562939
0.00055114119
0.0005872975
0.00067589781
0.00089971119
0.0019296964
0.0021929987
0.00099406039
0.00074057461
0.00063964607
0.00059795359
0.00057996715
0.00057226882
0.00056903934
0.00056794722
0.0005677683
0.00056798509
0.00056835938
0.00056889517
0.00056952217
0.00056992759
0.00056992759
0.00056952217
0.00056889517
0.00056835938
0.00056798509
0.0005677683
0.00056794722
0.00056903934
0.00057226882
0.00057996715
0.00059795359
0.00063964607
0.00074057461
0.00099406043
0.0021929996
0.0024980046
0.0011010818
0.00081300087
0.00069786365
0.00064972063
0.0006288169
0.00061981636
0.00061603162
0.0006147292
0.00061449448
0.00061472091
0.00061513292
0.00061572755
0.00061642462
0.00061687916
0.00061687916
0.00061642462
0.00061572755
0.00061513291
0.00061472091
0.00061449448
0.00061472919
0.00061603162
0.00061981635
0.0006288169
0.00064972063
0.00069786365
0.00081300086
0.0011010818
0.0024980057
0.0028511523
0.0012226323
0.0008941989
0.00076269725
0.00070704721
0.00068270719
0.00067215268
0.0006676954
0.00066613039
0.00066581967
0.00066605058
0.00066650256
0.00066716205
0.00066793614
0.00066844461
0.00066844461
0.00066793614
0.00066716205
0.00066650256
0.00066605057
0.00066581966
0.00066613038
0.00066769539
0.00067215267
0.00068270718
0.00070704721
0.00076269725
0.0008941989
0.0012226323
0.0028511535
0.003259741
0.0013608059
0.00098531366
0.00083498692
0.00077061489
0.00074223272
0.00072982632
0.00072455541
0.00072266366
0.0007222511
0.00072247891
0.00072297243
0.00072370296
0.00072456149
0.00072512895
0.00072512895
0.00072456148
0.00072370296
0.00072297243
0.00072247891
0.00072225109
0.00072266366
0.0007245554
0.00072982632
0.00074223271
0.00077061489
0.00083498691
0.00098531366
0.0013608059
0.0032597425
0.0037320264
0.0015179521
0.0010876187
0.0009156723
0.00084118839
0.00080806054
0.00079345121
0.00078719771
0.00078490092
0.00078435377
0.00078456783
0.00078510331
0.00078591104
0.00078686178
0.00078749355
0.00078749355
0.00078686177
0.00078591104
0.00078510331
0.00078456782
0.00078435377
0.00078490091
0.00078719771
0.00079345121
0.00080806053
0.00084118839
0.00091567229
0.0010876187
0.0015179522
0.0037320281
0.0042773425
0.0016967025
0.0012025262
0.0010058011
0.0009196241
0.00088093777
0.00086371404
0.0008562765
0.00085347954
0.0008527567
0.0008529424
0.0008535187
0.00085440951
0.00085546046
0.00085616203
0.00085616202
0.00085546046
0.00085440951
0.0008535187
0.00085294239
0.00085275669
0.00085347953
0.00085627649
0.00086371404
0.00088093776
0.00091962409
0.0010058011
0.0012025262
0.0016967026
0.0042773445
0.0049062318
0.0018999897
0.0013315949
0.0011065358
0.0010068767
0.00096169798
0.00094137994
0.00093251953
0.00092910747
0.00092815772
0.00092829555
0.00092890936
0.00092988854
0.00093104775
0.00093182464
0.00093182464
0.00093104775
0.00092988853
0.00092890936
0.00092829555
0.00092815772
0.00092910747
0.00093251952
0.00094137993
0.00096169797
0.0010068767
0.0011065358
0.0013315949
0.0018999898
0.0049062341
0.0056305855
0.0021310721
0.0014765365
0.0012191589
0.0011040053
0.0010512672
0.0010272981
0.0010167332
0.001012568
0.001011328
0.0010113923
0.0010120375
0.0010131093
0.0010143846
0.0010152423
0.0010152423
0.0010143846
0.0010131093
0.0010120375
0.0010113923
0.001011328
0.001012568
0.0010167332
0.0010272981
0.0010512672
0.0011040052
0.0012191589
0.0014765364
0.0021310722
0.0056305882
0.0064637668
0.002393565
0.0016392256
0.001345081
0.0012121816
0.0011506721
0.0011224095
0.0011098097
0.0011047266
0.0011031187
0.0011030764
0.0011037432
0.0011049104
0.0011063091
0.0011072529
0.0011072529
0.0011063091
0.0011049104
0.0011037431
0.0011030763
0.0011031187
0.0011047266
0.0011098097
0.0011224095
0.0011506721
0.0012121816
0.001345081
0.0016392256
0.0023935651
0.0064637699
0.0074209178
0.0026914714
0.0018217054
0.0014858457
0.0013326957
0.0012610459
0.0012277525
0.0012127327
0.0012065357
0.0012044653
0.001204274
0.0012049483
0.0012062118
0.00120774
0.0012087747
0.0012087747
0.00120774
0.0012062118
0.0012049482
0.001204274
0.0012044653
0.0012065357
0.0012127327
0.0012277525
0.0012610459
0.0013326957
0.0014858457
0.0018217054
0.0026914715
0.0074209215
0.0085191414
0.0030292126
0.0020261927
0.0016431326
0.0014669598
0.0013836327
0.0013444676
0.001326581
0.0013190393
0.0013163919
0.0013159983
0.0013166602
0.001318018
0.0013196806
0.0013208104
0.0013208104
0.0013196806
0.001318018
0.0013166602
0.0013159983
0.0013163919
0.0013190393
0.001326581
0.0013444676
0.0013836327
0.0014669598
0.0016431325
0.0020261927
0.0030292128
0.0085191457
0.0097777972
0.0034116687
0.0022550891
0.0018187635
0.0016165158
0.0015197953
0.0014738047
0.0014525366
0.001443379
0.0014400173
0.0014393552
0.0014399779
0.0014414244
0.0014432243
0.0014444527
0.0014444527
0.0014432243
0.0014414244
0.0014399779
0.0014393552
0.0014400173
0.0014433789
0.0014525365
0.0014738047
0.0015197953
0.0016165157
0.0018187635
0.0022550891
0.003411669
0.0097778022
0.011218816
0.0038442202
0.0025109869
0.0020147051
0.0017830384
0.0016710195
0.0016171271
0.0015918876
0.0015807982
0.0015765584
0.0015755468
0.0015760952
0.0015776202
0.0015795579
0.001580887
0.001580887
0.0015795579
0.0015776202
0.0015760952
0.0015755468
0.0015765584
0.0015807982
0.0015918876
0.0016171271
0.0016710195
0.0017830383
0.002014705
0.0025109869
0.0038442205
0.011218822
0.012867044
0.0043333251
0.0027966789
0.0022330688
0.001968337
0.0018389169
0.0017759155
0.0017460322
0.0017326449
0.0017273333
0.0017258736
0.0017263026
0.0017278901
0.0017299628
0.0017313935
0.0017313935
0.0017299628
0.0017278901
0.0017263026
0.0017258736
0.0017273333
0.0017326449
0.0017460322
0.0017759154
0.0018389169
0.001968337
0.0022330687
0.0027966789
0.0043333254
0.012867051
0.014750645
0.0048866697
0.003115174
0.0024761165
0.0021743613
0.002025231
0.0019517739
0.0019164847
0.0019003779
0.0018937671
0.0018917406
0.001891993
0.00189362
0.0018958213
0.0018973523
0.0018973523
0.0018958213
0.00189362
0.001891993
0.0018917405
0.001893767
0.0019003779
0.0019164846
0.0019517739
0.0020252309
0.0021743613
0.0024761164
0.003115174
0.0048866701
0.014750653
0.016901459
0.0055113886
0.0034696895
0.0027462575
0.0024032003
0.0022318384
0.0021464322
0.0021048777
0.0020855685
0.0020773932
0.0020746582
0.0020746632
0.0020762984
0.002078617
0.0020802451
0.0020802451
0.002078617
0.0020762984
0.0020746631
0.0020746582
0.0020773931
0.0020855684
0.0021048777
0.0021464321
0.0022318383
0.0024032002
0.0027462574
0.0034696894
0.0055113891
0.016901468
0.019355447
0.0062151637
0.0038636483
0.0030460417
0.0026570787
0.0024607477
0.0023617441
0.0023129615
0.0022898997
0.0022798525
0.0022762415
0.0022759119
0.0022775146
0.0022799339
0.0022816531
0.0022816531
0.0022799339
0.0022775146
0.0022759119
0.0022762415
0.0022798525
0.0022898997
0.0023129615
0.0023617441
0.0024607476
0.0026570787
0.0030460416
0.0038636482
0.0062151643
0.019355458
0.022153043
0.0070064919
0.0043006946
0.0033781657
0.0029383592
0.0027141016
0.0025996914
0.0025426072
0.0025151702
0.0025028974
0.0024982133
0.0024974444
0.0024989627
0.0025014596
0.0025032609
0.0025032609
0.0025014596
0.0024989627
0.0024974443
0.0024982133
0.0025028974
0.0025151702
0.0025426072
0.0025996914
0.0027141015
0.0029383591
0.0033781656
0.0043006945
0.0070064926
0.022153056
0.025338723
0.007894814
0.0047846906
0.0037454711
0.0032495377
0.0029941738
0.0028623835
0.0027958087
0.0027632963
0.0027483935
0.0027424075
0.002741074
0.0027424438
0.002744988
0.0027468589
0.0027468589
0.002744988
0.0027424438
0.002741074
0.0027424075
0.0027483935