/*--------------------------------*- C++ -*----------------------------------*\
  =========                 |
  \\      /  F ield         | OpenFOAM: The Open Source CFD Toolbox
   \\    /   O peration     | Website:  https://openfoam.org
    \\  /    A nd           | Version:  8
     \\/     M anipulation  |
\*---------------------------------------------------------------------------*/
/*   Windows 32 and 64 bit porting by blueCAPE: http://www.bluecape.com.pt   *\
|  Based on Windows porting (2.0.x v4) by Symscape: http://www.symscape.com   |
\*---------------------------------------------------------------------------*/
FoamFile
{
    version     2.0;
    format      ascii;
    class       volScalarField;
    location    "60";
    object      k;
}
// * * * * * * * * * * * * * * * * * * * * * * * * * * * * * * * * * * * * * //

dimensions      [0 2 -2 0 0 0 0];

internalField   nonuniform List<scalar> 
283500
(
0.0041391141
0.0041381546
0.0041380904
0.004138065
0.0041380506
0.0041380405
0.0041380332
0.004138028
0.0041380242
0.0041380215
0.0041380197
0.0041380184
0.0041380177
0.0041380172
0.0041380169
0.0041380169
0.0041380172
0.0041380177
0.0041380184
0.0041380197
0.0041380215
0.0041380242
0.004138028
0.0041380332
0.0041380405
0.0041380506
0.004138065
0.0041380904
0.0041381546
0.0041391141
0.004138258
0.0041366784
0.0041365277
0.0041364724
0.0041364463
0.0041364251
0.0041364092
0.0041363973
0.0041363886
0.0041363823
0.0041363779
0.004136375
0.0041363731
0.004136372
0.0041363713
0.0041363713
0.004136372
0.0041363731
0.004136375
0.0041363779
0.0041363823
0.0041363886
0.0041363973
0.0041364092
0.0041364251
0.0041364463
0.0041364724
0.0041365277
0.0041366784
0.004138258
0.0041390135
0.0041360431
0.0041357627
0.0041356769
0.0041356319
0.004135592
0.0041355642
0.0041355444
0.0041355296
0.0041355187
0.004135511
0.0041355058
0.0041355025
0.0041355004
0.0041354993
0.0041354993
0.0041355004
0.0041355025
0.0041355058
0.004135511
0.0041355187
0.0041355296
0.0041355444
0.0041355642
0.004135592
0.0041356319
0.0041356769
0.0041357627
0.0041360431
0.0041390135
0.0041420795
0.0041366394
0.0041361412
0.0041360367
0.0041359832
0.0041359279
0.0041358858
0.004135854
0.004135831
0.004135815
0.0041358034
0.0041357955
0.0041357905
0.0041357873
0.0041357857
0.0041357857
0.0041357873
0.0041357905
0.0041357955
0.0041358034
0.004135815
0.004135831
0.004135854
0.0041358858
0.0041359279
0.0041359832
0.0041360367
0.0041361412
0.0041366394
0.0041420795
0.0041479228
0.0041388211
0.0041379705
0.0041378577
0.0041378079
0.0041377461
0.0041376932
0.0041376513
0.0041376193
0.0041375959
0.0041375789
0.004137568
0.0041375611
0.0041375567
0.0041375544
0.0041375544
0.0041375567
0.0041375611
0.004137568
0.0041375789
0.0041375959
0.0041376193
0.0041376513
0.0041376932
0.0041377461
0.0041378079
0.0041378577
0.0041379705
0.0041388211
0.0041479228
0.0041568026
0.0041428931
0.0041415009
0.0041413947
0.0041413612
0.0041413052
0.0041412484
0.0041412011
0.0041411625
0.0041411331
0.0041411114
0.0041410967
0.0041410872
0.0041410812
0.004141078
0.004141078
0.0041410812
0.0041410872
0.0041410967
0.0041411114
0.0041411331
0.0041411625
0.0041412011
0.0041412484
0.0041413052
0.0041413612
0.0041413947
0.0041415009
0.0041428931
0.0041568026
0.0041688977
0.0041491237
0.0041469603
0.0041468699
0.0041468658
0.0041468307
0.004146779
0.0041467329
0.0041466916
0.0041466589
0.004146634
0.0041466165
0.0041466051
0.0041465977
0.0041465938
0.0041465938
0.0041465977
0.0041466051
0.0041466165
0.004146634
0.0041466589
0.0041466916
0.0041467329
0.004146779
0.0041468307
0.0041468658
0.0041468699
0.0041469603
0.0041491237
0.0041688978
0.0041843292
0.0041577415
0.0041545486
0.0041544724
0.0041545124
0.0041545155
0.0041544797
0.0041544428
0.0041544042
0.0041543715
0.0041543453
0.0041543264
0.0041543139
0.0041543057
0.0041543013
0.0041543013
0.0041543057
0.0041543139
0.0041543264
0.0041543453
0.0041543715
0.0041544042
0.0041544428
0.0041544797
0.0041545155
0.0041545124
0.0041544724
0.0041545486
0.0041577415
0.0041843292
0.0042031751
0.0041689317
0.0041644324
0.0041643566
0.0041644543
0.0041645142
0.0041645065
0.0041644886
0.004164459
0.0041644307
0.004164406
0.0041643874
0.0041643749
0.0041643665
0.0041643618
0.0041643618
0.0041643665
0.0041643749
0.0041643874
0.004164406
0.0041644307
0.004164459
0.0041644886
0.0041645065
0.0041645142
0.0041644543
0.0041643566
0.0041644324
0.0041689317
0.0042031751
0.0042254919
0.00418284
0.0041767477
0.004176647
0.0041768146
0.0041769499
0.0041769833
0.0041769954
0.0041769822
0.0041769636
0.0041769437
0.0041769274
0.0041769163
0.0041769087
0.0041769041
0.0041769041
0.0041769087
0.0041769163
0.0041769274
0.0041769437
0.0041769636
0.0041769822
0.0041769954
0.0041769833
0.0041769499
0.0041768146
0.004176647
0.0041767477
0.00418284
0.0042254919
0.0042513294
0.0041995828
0.0041916062
0.0041914459
0.0041916938
0.0041919227
0.0041920109
0.0041920648
0.0041920763
0.0041920734
0.0041920624
0.004192051
0.0041920431
0.0041920372
0.0041920331
0.0041920331
0.0041920372
0.0041920431
0.004192051
0.0041920624
0.0041920734
0.0041920763
0.0041920648
0.0041920109
0.0041919227
0.0041916938
0.0041914459
0.0041916062
0.0041995828
0.0042513294
0.0042807436
0.004219253
0.0042091018
0.0042088407
0.0042091781
0.0042095172
0.0042096738
0.0042097821
0.0042098275
0.0042098471
0.0042098497
0.0042098463
0.0042098438
0.0042098409
0.0042098377
0.0042098377
0.0042098409
0.0042098438
0.0042098463
0.0042098497
0.0042098471
0.0042098275
0.0042097821
0.0042096738
0.0042095172
0.0042091781
0.0042088407
0.0042091018
0.004219253
0.0042807436
0.0043138025
0.0042419267
0.0042293168
0.0042289096
0.0042293446
0.0042298087
0.0042300466
0.004230222
0.0042303109
0.0042303607
0.004230382
0.0042303903
0.0042303958
0.0042303975
0.0042303959
0.0042303959
0.0042303975
0.0042303958
0.0042303903
0.004230382
0.0042303607
0.0042303109
0.004230222
0.0042300466
0.0042298087
0.0042293446
0.0042289096
0.0042293168
0.0042419267
0.0043138025
0.0043505833
0.0042676711
0.0042523232
0.0042517245
0.0042522656
0.0042528674
0.0042531982
0.0042534527
0.004253595
0.004253683
0.004253729
0.004253753
0.0042537696
0.0042537777
0.0042537784
0.0042537784
0.0042537777
0.0042537696
0.004253753
0.004253729
0.004253683
0.004253595
0.0042534527
0.0042531982
0.0042528674
0.0042522656
0.0042517245
0.0042523232
0.0042676711
0.0043505833
0.0043911716
0.0042965485
0.0042781835
0.0042773529
0.0042780102
0.0042787608
0.0042791944
0.0042795392
0.0042797441
0.0042798786
0.0042799555
0.0042799999
0.004280031
0.0042800478
0.0042800518
0.0042800518
0.0042800478
0.004280031
0.0042799999
0.0042799555
0.0042798786
0.0042797441
0.0042795392
0.0042791944
0.0042787608
0.0042780102
0.0042773529
0.0042781835
0.0042965485
0.0043911717
0.0044356605
0.0043286177
0.0043069565
0.0043058591
0.0043066461
0.0043075553
0.0043080999
0.0043085448
0.0043088211
0.0043090101
0.0043091243
0.0043091941
0.0043092436
0.0043092716
0.0043092797
0.0043092797
0.0043092716
0.0043092436
0.0043091941
0.0043091243
0.0043090101
0.0043088211
0.0043085448
0.0043080999
0.0043075553
0.0043066461
0.0043058591
0.0043069565
0.0043286177
0.0044356605
0.0044841474
0.0043639354
0.0043386987
0.0043373048
0.00433824
0.0043393175
0.0043399801
0.0043405334
0.0043408885
0.0043411394
0.0043412972
0.0043413975
0.0043414696
0.0043415116
0.004341525
0.004341525
0.0043415116
0.0043414696
0.0043413975
0.0043412972
0.0043411394
0.0043408885
0.0043405334
0.0043399801
0.0043393175
0.00433824
0.0043373048
0.0043386987
0.0043639354
0.0044841475
0.0045367321
0.0044025572
0.0043734659
0.00437175
0.0043728572
0.0043741149
0.0043749017
0.0043755702
0.00437601
0.0043763292
0.0043765365
0.0043766723
0.0043767713
0.0043768304
0.0043768501
0.0043768501
0.0043768304
0.0043767713
0.0043766723
0.0043765365
0.0043763292
0.00437601
0.0043755702
0.0043749017
0.0043741149
0.0043728572
0.00437175
0.0043734659
0.0044025572
0.0045367323
0.0045935143
0.0044445381
0.0044113138
0.0044092544
0.0044105629
0.0044120167
0.0044129341
0.0044137225
0.0044142514
0.0044146442
0.004414906
0.0044150821
0.0044152122
0.0044152916
0.0044153188
0.0044153188
0.0044152916
0.0044152122
0.0044150821
0.004414906
0.0044146442
0.0044142514
0.0044137225
0.0044129341
0.0044120167
0.0044105629
0.0044092544
0.0044113138
0.0044445381
0.0045935144
0.004654593
0.0044899335
0.0044522992
0.0044498782
0.0044514224
0.004453093
0.0044541488
0.0044550604
0.0044556813
0.0044561516
0.0044564718
0.0044566924
0.0044568575
0.0044569604
0.0044569962
0.0044569962
0.0044569604
0.0044568575
0.0044566924
0.0044564718
0.0044561516
0.0044556813
0.0044550604
0.0044541488
0.004453093
0.0044514224
0.0044498782
0.0044522992
0.0044899335
0.0046545932
0.0047200696
0.0045387987
0.0044964811
0.0044936832
0.0044955021
0.0044974145
0.0044986194
0.004499657
0.0045003708
0.0045009213
0.0045013028
0.0045015709
0.0045017746
0.0045019042
0.0045019495
0.0045019495
0.0045019042
0.0045017746
0.0045015709
0.0045013028
0.0045009213
0.0045003708
0.004499657
0.0044986194
0.0044974145
0.0044955021
0.0044936832
0.0044964811
0.0045387987
0.0047200697
0.0047900507
0.0045911897
0.0045439223
0.0045407338
0.0045428701
0.0045450537
0.0045464219
0.0045475891
0.0045483954
0.0045490268
0.004549471
0.0045497889
0.0045500339
0.0045501929
0.0045502484
0.0045502484
0.0045501929
0.0045500339
0.0045497889
0.004549471
0.0045490268
0.0045483954
0.0045475891
0.0045464219
0.0045450537
0.0045428701
0.0045407338
0.0045439223
0.0045911897
0.0047900509
0.0048646523
0.0046471628
0.00459469
0.0045910982
0.0045935978
0.0045960864
0.0045976355
0.0045989372
0.0045998349
0.0046005463
0.004601053
0.0046014216
0.0046017096
0.0046019003
0.0046019664
0.0046019664
0.0046019003
0.0046017096
0.0046014216
0.004601053
0.0046005463
0.0045998349
0.0045989372
0.0045976355
0.0045960864
0.0045935978
0.0045910982
0.00459469
0.0046471628
0.0048646525
0.0049440024
0.004706775
0.0046488566
0.0046448496
0.0046477607
0.0046505912
0.0046523425
0.0046537861
0.0046547742
0.0046555628
0.0046561301
0.0046565488
0.0046568803
0.0046571041
0.0046571809
0.0046571809
0.0046571041
0.0046568803
0.0046565488
0.0046561301
0.0046555628
0.0046547742
0.0046537861
0.0046523425
0.0046505912
0.0046477607
0.0046448496
0.0046488566
0.004706775
0.0049440027
0.0050282468
0.0047700839
0.0047064997
0.0047020665
0.0047054391
0.004708651
0.0047106289
0.0047122244
0.0047133028
0.0047141644
0.0047147886
0.0047152556
0.0047156297
0.0047158873
0.0047159744
0.0047159744
0.0047158873
0.0047156297
0.0047152556
0.0047147886
0.0047141644
0.0047133028
0.0047122244
0.0047106289
0.004708651
0.0047054391
0.0047020665
0.0047064997
0.0047700839
0.0050282471
0.0051175542
0.004837147
0.0047677018
0.004762834
0.0047667191
0.004770354
0.0047725851
0.004774345
0.0047755153
0.0047764455
0.004777121
0.0047776324
0.004778047
0.0047783381
0.0047784344
0.0047784344
0.0047783381
0.004778047
0.0047776324
0.004777121
0.0047764455
0.0047755153
0.004774345
0.0047725851
0.004770354
0.0047667191
0.004762834
0.0047677018
0.004837147
0.0051175545
0.0052121199
0.0049080229
0.0048325504
0.0048272424
0.0048316923
0.004835793
0.0048383061
0.0048402449
0.0048415109
0.004842506
0.0048432258
0.0048437762
0.0048442276
0.0048445506
0.0048446548
0.0048446548
0.0048445506
0.0048442276
0.0048437762
0.0048432258
0.004842506
0.0048415109
0.0048402449
0.0048383061
0.004835793
0.0048316923
0.0048272424
0.0048325504
0.0049080229
0.0052121203
0.0053121683
0.0049827697
0.0049011384
0.0048953875
0.0049004554
0.0049050658
0.0049078904
0.0049100243
0.0049113919
0.0049124497
0.0049132066
0.004913789
0.0049142724
0.0049146247
0.0049147352
0.0049147352
0.0049146247
0.0049142724
0.004913789
0.0049132066
0.0049124497
0.0049113919
0.0049100243
0.0049078904
0.0049050658
0.0049004554
0.0048953875
0.0049011383
0.0049827697
0.0053121687
0.0054179584
0.0050614407
0.0049735632
0.0049673708
0.0049731105
0.0049782745
0.0049814409
0.0049837865
0.0049852628
0.0049863826
0.0049871698
0.0049877763
0.0049882857
0.0049886637
0.0049887787
0.0049887787
0.0049886637
0.0049882857
0.0049877763
0.0049871698
0.0049863826
0.0049852628
0.0049837865
0.0049814409
0.0049782745
0.0049731105
0.0049673708
0.0049735632
0.0050614407
0.0054179588
0.0055297903
0.0051440856
0.005049926
0.005043299
0.0050497654
0.0050555271
0.0050590655
0.00506164
0.0050632322
0.0050644143
0.005065226
0.0050658486
0.0050663766
0.0050667755
0.0050668933
0.0050668933
0.0050667755
0.0050663766
0.0050658486
0.005065226
0.0050644143
0.0050632322
0.00506164
0.0050590655
0.0050555271
0.0050497654
0.005043299
0.005049926
0.0051440856
0.0055297908
0.0056480117
0.0052307523
0.0051303317
0.0051232831
0.0051305327
0.005136936
0.005140877
0.005143698
0.0051454145
0.0051466596
0.0051474911
0.0051481216
0.0051486602
0.0051490739
0.0051491918
0.0051491918
0.0051490739
0.0051486602
0.0051481216
0.0051474911
0.0051466596
0.0051454145
0.005143698
0.005140877
0.005136936
0.0051305327
0.0051232831
0.0051303317
0.0052307523
0.0056480122
0.0057730256
0.0053214889
0.0052148903
0.0052074386
0.0052155291
0.0052226181
0.005226992
0.0052300771
0.0052319269
0.005233237
0.0052340844
0.0052347157
0.0052352563
0.0052356782
0.0052357947
0.0052357947
0.0052356782
0.0052352563
0.0052347157
0.0052340844
0.005233237
0.0052319269
0.0052300771
0.005226992
0.0052226181
0.0052155291
0.0052074386
0.0052148903
0.0053214889
0.0057730262
0.0059052976
0.0054163434
0.0053037157
0.0052958851
0.0053048751
0.0053126933
0.0053175296
0.0053208961
0.0053228884
0.0053242662
0.0053251271
0.0053257528
0.0053262876
0.0053267106
0.0053268248
0.0053268248
0.0053267106
0.0053262876
0.0053257528
0.0053251271
0.0053242662
0.0053228884
0.0053208961
0.0053175296
0.0053126933
0.0053048751
0.0052958851
0.0053037157
0.0054163434
0.0059052982
0.00604537
0.0055153681
0.0053969298
0.0053887492
0.0053986965
0.0054072866
0.005412614
0.0054162783
0.0054184221
0.0054198706
0.0054207436
0.0054213586
0.0054218803
0.0054222987
0.0054224095
0.0054224095
0.0054222987
0.0054218803
0.0054213586
0.0054207436
0.0054198706
0.0054184221
0.0054162783
0.005412614
0.0054072866
0.0053986965
0.0053887492
0.0053969298
0.0055153681
0.0060453707
0.0061938773
0.0056186237
0.0054946641
0.0054861651
0.0054971251
0.0055065282
0.0055123742
0.0055163516
0.0055186549
0.0055201776
0.0055210627
0.0055216635
0.0055221662
0.0055225757
0.0055226821
0.0055226821
0.0055225757
0.0055221662
0.0055216635
0.0055210627
0.0055201776
0.0055186549
0.0055163516
0.0055123742
0.0055065282
0.0054971251
0.0054861651
0.0054946641
0.0056186237
0.006193878
0.0063515635
0.0057261835
0.0055970626
0.0055882764
0.0056002991
0.0056105541
0.0056169445
0.0056212484
0.005623719
0.0056253198
0.0056262182
0.0056268029
0.0056272828
0.0056276799
0.0056277808
0.0056277808
0.0056276799
0.0056272828
0.0056268029
0.0056262182
0.0056253198
0.005623719
0.0056212484
0.0056169445
0.0056105541
0.0056002991
0.0055882764
0.0055970626
0.0057261835
0.0063515643
0.0065193052
0.0058381453
0.0057042873
0.0056952411
0.0057083676
0.0057195101
0.0057264682
0.0057311106
0.0057337558
0.0057354388
0.0057363523
0.0057369207
0.0057373755
0.0057377576
0.0057378521
0.0057378521
0.0057377576
0.0057373755
0.0057369207
0.0057363523
0.0057354388
0.0057337558
0.0057311106
0.0057264682
0.0057195101
0.0057083676
0.0056952411
0.0057042873
0.0058381453
0.006519306
0.0066981561
0.0059546386
0.0058165235
0.0058072348
0.005821494
0.0058335534
0.0058410993
0.0058460915
0.0058489182
0.0058506867
0.0058516172
0.00585217
0.0058525993
0.005852965
0.0058530529
0.0058530529
0.005852965
0.0058525993
0.00585217
0.0058516172
0.0058506867
0.0058489182
0.0058460915
0.0058410993
0.0058335534
0.005821494
0.0058072348
0.0058165235
0.0059546386
0.006698157
0.0068893689
0.0060758405
0.0059339858
0.0059244541
0.0059398578
0.0059528547
0.0059610053
0.0059663573
0.0059693715
0.0059712285
0.0059721779
0.0059727164
0.0059731207
0.0059734696
0.0059735514
0.0059735514
0.0059734696
0.0059731207
0.0059727164
0.0059721779
0.0059712285
0.0059693715
0.0059663573
0.0059610053
0.0059528547
0.0059398578
0.0059244541
0.0059339858
0.0060758405
0.0068893698
0.0070944495
0.006201998
0.0060569301
0.006047125
0.0060636617
0.0060776054
0.006086373
0.0060920927
0.0060952995
0.0060972473
0.0060982173
0.0060987434
0.0060991243
0.0060994569
0.0060995336
0.0060995336
0.0060994569
0.0060991243
0.0060987434
0.0060982173
0.0060972473
0.0060952995
0.0060920927
0.006086373
0.0060776054
0.0060636617
0.006047125
0.0060569301
0.006201998
0.0070944505
0.0073151954
0.0063334483
0.0061856631
0.0061755095
0.0061931361
0.0062080221
0.0062174123
0.0062235046
0.0062269075
0.0062289481
0.0062299407
0.0062304564
0.0062308162
0.006231134
0.0062312068
0.0062312068
0.006231134
0.0062308162
0.0062304564
0.0062299407
0.0062289481
0.0062269075
0.0062235046
0.0062174123
0.0062080221
0.0061931361
0.0061755095
0.0061856631
0.0063334483
0.0073151965
0.0075537716
0.0064706434
0.0063205561
0.0063099154
0.0063285461
0.0063443509
0.0063543602
0.006360826
0.0063644274
0.0063665622
0.0063675796
0.0063680872
0.0063684287
0.0063687339
0.0063688042
0.0063688042
0.0063687339
0.0063684287
0.0063680872
0.0063675796
0.0063665622
0.0063644274
0.006360826
0.0063543602
0.0063443509
0.006328546
0.0063099154
0.0063205561
0.0064706434
0.0075537729
0.0078127735
0.0066141891
0.0064620662
0.0064507101
0.0064701982
0.0064868706
0.0064974836
0.0065043198
0.006508125
0.0065103558
0.0065114002
0.0065119025
0.0065122289
0.0065125239
0.0065125936
0.0065125936
0.0065125239
0.0065122289
0.0065119025
0.0065114002
0.0065103558
0.006508125
0.0065043198
0.0064974836
0.0064868706
0.0064701982
0.0064507101
0.0064620662
0.0066141891
0.0078127748
0.0080953105
0.0067648901
0.0066107484
0.0065983295
0.0066184538
0.0066359118
0.0066470975
0.0066542944
0.0066583011
0.0066606352
0.0066617104
0.0066622105
0.0066625255
0.006662813
0.0066628838
0.0066628838
0.006662813
0.0066625255
0.0066622105
0.0066617104
0.0066606352
0.0066583011
0.0066542944
0.0066470975
0.0066359118
0.0066184538
0.0065983295
0.0066107484
0.0067648901
0.008095312
0.0084050997
0.0069238128
0.0067672757
0.0067532888
0.0067737461
0.0067918642
0.0068035715
0.006811111
0.0068153134
0.0068177504
0.0068188661
0.0068193679
0.0068196758
0.0068199587
0.0068200326
0.0068200326
0.0068199587
0.0068196758
0.0068193679
0.0068188661
0.0068177504
0.0068153134
0.006811111
0.0068035715
0.0067918642
0.0067737461
0.0067532888
0.0067672757
0.0069238129
0.0084051012
0.0087465721
0.0070923026
0.0069324624
0.0069162143
0.006936591
0.0069551887
0.0069673405
0.0069751933
0.0069795811
0.0069821195
0.00698328
0.0069837927
0.0069840982
0.0069843801
0.0069844591
0.0069844591
0.0069843801
0.0069840982
0.0069837927
0.00698328
0.0069821195
0.0069795811
0.0069751933
0.0069673405
0.0069551887
0.006936591
0.0069162143
0.0069324624
0.0070923026
0.0087465739
0.0091249845
0.0072720435
0.0071073004
0.0070878585
0.0071076025
0.0071264302
0.0071389164
0.0071470386
0.0071515957
0.0071542319
0.0071554392
0.0071559739
0.0071562834
0.0071565686
0.007156655
0.007156655
0.0071565686
0.0071562834
0.0071559739
0.0071554392
0.0071542319
0.0071515957
0.0071470386
0.0071389164
0.0071264302
0.0071076025
0.0070878585
0.0071073004
0.0072720436
0.0091249864
0.0095465376
0.0074651255
0.0072929931
0.0072691231
0.0072875111
0.0073062327
0.0073189016
0.0073272306
0.0073319328
0.0073346609
0.0073359165
0.0073364776
0.0073368046
0.0073370989
0.0073371947
0.0073371947
0.0073370989
0.0073368046
0.0073364776
0.0073359165
0.0073346609
0.0073319328
0.0073272306
0.0073189016
0.0073062327
0.0072875111
0.0072691231
0.0072929931
0.0074651256
0.0095465397
0.010018514
0.0076741066
0.0074909938
0.0074610897
0.0074771894
0.0074953616
0.0075080092
0.0075164583
0.0075212714
0.007524082
0.0075253869
0.007525979
0.0075263306
0.0075266408
0.007526749
0.007526749
0.0075266408
0.0075263306
0.007525979
0.0075253869
0.007524082
0.0075212714
0.0075164583
0.0075080092
0.0074953616
0.0074771894
0.0074610897
0.0074909937
0.0076741067
0.010018517
0.010549428
0.0079020793
0.0077030422
0.0076650501
0.0076776761
0.0076947234
0.0077070806
0.0077155329
0.0077204097
0.0077232896
0.007724644
0.0077252723
0.0077256563
0.0077259903
0.0077261154
0.0077261154
0.0077259903
0.0077256563
0.0077252723
0.007724644
0.0077232896
0.0077204097
0.0077155329
0.0077070806
0.0076947234
0.0076776761
0.0076650501
0.0077030421
0.0079020794
0.010549431
0.011149169
0.0081527573
0.007931207
0.0078825403
0.0078902034
0.0079053893
0.0079171064
0.0079254074
0.0079302839
0.0079332135
0.0079346171
0.0079352877
0.0079357132
0.0079360802
0.0079362279
0.0079362279
0.0079360802
0.0079357132
0.0079352877
0.0079346171
0.0079332135
0.0079302839
0.0079254074
0.0079171064
0.0079053893
0.0078902033
0.0078825403
0.007931207
0.0081527574
0.011149172
0.01182917
0.0084304554
0.008177936
0.0081153788
0.0081162315
0.0081286259
0.0081392551
0.0081472034
0.0081519942
0.0081549451
0.0081563953
0.0081571156
0.0081575936
0.0081580049
0.0081581822
0.0081581822
0.0081580049
0.0081575936
0.0081571155
0.0081563953
0.0081549451
0.0081519942
0.0081472034
0.0081392551
0.0081286259
0.0081162315
0.0081153788
0.008177936
0.0084304555
0.011829173
0.012602586
0.0087401956
0.0084461002
0.0083657011
0.0083574822
0.008365925
0.0083749
0.0083822364
0.0083868285
0.0083897604
0.0083912508
0.0083920293
0.0083925736
0.008393043
0.0083932587
0.0083932587
0.008393043
0.0083925736
0.0083920293
0.0083912508
0.0083897604
0.0083868285
0.0083822364
0.0083749
0.008365925
0.0083574822
0.008365701
0.0084461002
0.0087401957
0.012602589
0.013484461
0.009087824
0.008739039
0.008636002
0.0086159743
0.0086190347
0.0086256468
0.0086320413
0.008636288
0.0086391455
0.0086406643
0.0086415094
0.0086421362
0.0086426807
0.0086429456
0.0086429456
0.0086426807
0.0086421362
0.0086415094
0.0086406643
0.0086391455
0.008636288
0.0086320413
0.0086256468
0.0086190347
0.0086159743
0.008636002
0.008739039
0.0090878241
0.013484465
0.01449192
0.0094800408
0.009060613
0.0089291888
0.0088940702
0.0088900002
0.0088933715
0.0088984082
0.0089021209
0.0089048297
0.0089063575
0.0089072763
0.008908004
0.008908644
0.0089089712
0.0089089712
0.008908644
0.008908004
0.0089072763
0.0089063575
0.0089048297
0.0089021209
0.0088984082
0.0088933715
0.0088900002
0.0088940701
0.0089291888
0.009060613
0.009480041
0.014491924
0.015644346
0.0099244601
0.0094152472
0.0092486224
0.0091945154
0.0091812013
0.0091802537
0.0091834131
0.0091863522
0.0091888141
0.0091903214
0.0091913183
0.0091921672
0.0091929264
0.009193331
0.009193331
0.0091929264
0.0091921672
0.0091913183
0.0091903214
0.0091888141
0.0091863522
0.0091834131
0.0091802537
0.0091812013
0.0091945154
0.0092486224
0.0094152472
0.0099244603
0.015644351
0.016963568
0.010429668
0.0098079639
0.0095981545
0.0095204782
0.0094953898
0.0094888108
0.0094894497
0.0094913133
0.0094934004
0.009494845
0.0094959198
0.0094969111
0.0094978164
0.0094983156
0.0094983156
0.0094978164
0.0094969111
0.0094959198
0.009494845
0.0094934004
0.0094913133
0.0094894497
0.0094888108
0.0094953898
0.0095204782
0.0095981545
0.0098079638
0.010429668
0.016963574
0.018474087
0.011005302
0.010244428
0.0099821729
0.0098755979
0.0098357351
0.0098219428
0.0098192712
0.0098196823
0.0098212297
0.0098225524
0.0098236986
0.0098248533
0.0098259342
0.0098265473
0.0098265473
0.0098259342
0.0098248533
0.0098236986
0.0098225524
0.0098212297
0.0098196822
0.0098192712
0.0098219428
0.0098357351
0.0098755979
0.0099821729
0.010244428
0.011005302
0.018474093
0.020203289
0.011662099
0.010730984
0.010405638
0.010264024
0.010205863
0.010182967
0.010176024
0.010174515
0.010175313
0.010176433
0.010177635
0.010178973
0.010180261
0.010181009
0.010181009
0.010180261
0.010178973
0.010177635
0.010176433
0.010175313
0.010174515
0.010176024
0.010182966
0.010205863
0.010264024
0.010405637
0.010730984
0.011662099
0.020203296
0.022181658
0.012411958
0.011274681
0.010874111
0.010690453
0.010609892
0.010575652
0.01056328
0.010559279
0.010559063
0.010559872
0.010561102
0.010562639
0.010564166
0.01056507
0.01056507
0.010564166
0.010562639
0.010561102
0.010559872
0.010559063
0.010559279
0.01056328
0.010575652
0.010609892
0.010690453
0.010874111
0.011274681
0.012411959
0.022181665
0.024442901
0.013268026
0.011883316
0.011393795
0.01116017
0.011052482
0.011004265
0.010985079
0.010977888
0.010976327
0.010976684
0.010977899
0.010979647
0.010981443
0.010982525
0.010982525
0.010981443
0.010979647
0.010977899
0.010976684
0.010976327
0.010977888
0.010985079
0.011004265
0.011052482
0.01116017
0.011393795
0.011883316
0.013268026
0.02444291
0.02702453
0.014244763
0.01256544
0.011971551
0.011679082
0.011538863
0.011473604
0.011445963
0.011434739
0.011431424
0.011431144
0.011432282
0.011434243
0.011436337
0.011437618
0.011437618
0.011436337
0.011434243
0.011432282
0.011431144
0.011431424
0.011434739
0.011445963
0.011473604
0.011538863
0.011679082
0.011971551
0.01256544
0.014244763
0.02702454
0.029968032
0.015358018
0.013330379
0.012614914
0.012253732
0.012074865
0.011989023
0.011950997
0.011934733
0.011929161
0.011928009
0.011928983
0.011931148
0.011933562
0.011935063
0.011935063
0.011933562
0.011931148
0.011928983
0.011928009
0.011929161
0.011934733
0.011950997
0.011989023
0.012074865
0.012253732
0.012614914
0.013330379
0.015358019
0.029968043
0.033319293
0.016625117
0.014188261
0.013332107
0.012891335
0.01266695
0.012556471
0.012505812
0.012483308
0.01247487
0.012472552
0.012473241
0.012475587
0.012478336
0.012480073
0.012480073
0.012478336
0.012475587
0.012473241
0.012472552
0.01247487
0.012483308
0.012505812
0.012556471
0.01266695
0.012891335
0.013332107
0.01418826
0.016625117
0.033319306
0.037128996
0.018064952
0.015150028
0.014132049
0.013599788
0.013322235
0.013182513
0.013116618
0.013086466
0.013074425
0.013070576
0.013070823
0.013073304
0.013076393
0.01307838
0.01307838
0.013076393
0.013073304
0.013070823
0.013070576
0.013074425
0.013086466
0.013116618
0.013182513
0.013322235
0.013599787
0.014132049
0.015150028
0.018064953
0.037129011
0.041453014
0.01969977
0.016227455
0.01502434
0.014387665
0.014048501
0.013874343
0.013790224
0.013750775
0.013734255
0.013728427
0.013728026
0.013730571
0.013733992
0.013736235
0.013736235
0.013733992
0.013730571
0.013728026
0.013728427
0.013734255
0.013750775
0.013790224
0.013874343
0.0140485
0.014387664
0.01502434
0.016227455
0.019699771
0.04145303
0.046352871
0.021555387
0.017433191
0.016019271
0.015264235
0.014854208
0.01463981
0.014534062
0.014483405
0.014461367
0.014453017
0.014451707
0.014454211
0.014457938
0.014460437
0.014460437
0.014457938
0.014454211
0.014451707
0.014453017
0.014461367
0.014483405
0.014534062
0.01463981
0.014854208
0.015264234
0.016019271
0.01743319
0.021555388
0.046352889
0.051896004
0.023655736
0.018780704
0.017127797
0.016239441
0.015748496
0.015487417
0.015356189
0.015292124
0.015263349
0.015251826
0.015249278
0.015251597
0.015255585
0.015258329
0.015258329
0.015255585
0.015251597
0.015249278
0.015251826
0.015263349
0.015292124
0.015356189
0.015487417
0.015748496
0.016239441
0.017127796
0.018780704
0.023655737
0.051896025
0.058156113
0.026026336
0.020284262
0.018361487
0.017323871
0.016741162
0.016426309
0.016265277
0.016185288
0.016148357
0.016132883
0.016128693
0.01613064
0.016134816
0.016137783
0.016137783
0.016134815
0.01613064
0.016128693
0.016132883
0.016148357
0.016185288
0.016265277
0.016426309
0.016741162
0.017323871
0.018361487
0.020284261
0.026026338
0.058156137
0.065213223
0.028694915
0.021958963
0.019732539
0.018528742
0.017842657
0.01746627
0.017270614
0.017171847
0.017125121
0.017104779
0.017098457
0.01709979
0.017104052
0.017107206
0.017107206
0.017104052
0.01709979
0.017098457
0.017104779
0.017125121
0.017171847
0.017270614
0.01746627
0.017842657
0.018528742
0.019732539
0.021958962
0.028694917
0.065213251
0.073152093
0.031691653
0.023820703
0.021253749
0.01986587
0.01906405
0.018617714
0.018382103
0.018261346
0.018202946
0.018176668
0.018167626
0.018168046
0.018172256
0.018175546
0.018175546
0.018172256
0.018168046
0.018167626
0.018176668
0.018202946
0.018261346
0.018382103
0.018617713
0.01906405
0.019865869
0.021253748
0.023820703
0.031691655
0.073152125
0.082064855
0.035049509
0.025886187
0.022938447
0.021347632
0.020417018
0.019891673
0.019610254
0.019463915
0.019391706
0.019358252
0.019345796
0.019344934
0.019348918
0.019352271
0.019352271
0.019348918
0.019344934
0.019345796
0.019358252
0.019391706
0.019463915
0.019610254
0.019891672
0.020417018
0.021347632
0.022938447
0.025886187
0.035049512
0.082064892
0.092048815
0.038804678
0.028173051
0.024800483
0.022986965
0.021913839
0.021299791
0.020966177
0.020790265
0.020701833
0.02065978
0.020643094
0.020640507
0.020644042
0.020647367
0.020647367
0.020644042
0.020640507
0.020643094
0.02065978
0.020701833
0.020790265
0.020966176
0.021299791
0.021913838
0.022986965
0.024800482
0.028173051
0.038804681
0.092048857
0.10320483
0.042997046
0.030699877
0.026854174
0.024797286
0.023567329
0.022854262
0.02246152
0.022251632
0.022144271
0.022091995
0.022070131
0.02206529
0.022068106
0.022071285
0.022071285
0.022068106
0.02206529
0.022070131
0.022091995
0.022144271
0.022251632
0.02246152
0.022854262
0.023567328
0.024797285
0.026854174
0.030699877
0.04299705
0.10320488
0.11563484
0.047670673
0.033486148
0.029114246
0.026792393
0.025390751
0.024567758
0.02410842
0.02385973
0.023730422
0.023666087
0.023637953
0.023630238
0.023632007
0.023634898
0.023634898
0.023632007
0.023630238
0.023637953
0.023666087
0.023730422
0.02385973
0.02410842
0.024567758
0.02539075
0.026792392
0.029114245
0.033486148
0.047670677
0.1156349
0.1294384
0.052874448
0.036552142
0.031595792
0.028986413
0.027397778
0.026453405
0.025919471
0.02562672
0.02547213
0.025393673
0.025358025
0.025346714
0.025347047
0.025349479
0.025349479
0.025347047
0.025346714
0.025358025
0.025393673
0.02547213
0.02562672
0.025919471
0.026453404
0.027397778
0.028986412
0.031595791
0.036552142
0.052874453
0.12943846
0.14470807
0.058662512
0.039919158
0.034314211
0.031393733
0.029602418
0.028524704
0.027907664
0.027565162
0.027381624
0.027286746
0.027242177
0.027226441
0.027224885
0.027226654
0.027226654
0.027224885
0.027226441
0.027242177
0.027286746
0.027381624
0.027565162