/*--------------------------------*- C++ -*----------------------------------*\
  =========                 |
  \\      /  F ield         | OpenFOAM: The Open Source CFD Toolbox
   \\    /   O peration     | Website:  https://openfoam.org
    \\  /    A nd           | Version:  8
     \\/     M anipulation  |
\*---------------------------------------------------------------------------*/
/*   Windows 32 and 64 bit porting by blueCAPE: http://www.bluecape.com.pt   *\
|  Based on Windows porting (2.0.x v4) by Symscape: http://www.symscape.com   |
\*---------------------------------------------------------------------------*/
FoamFile
{
    version     2.0;
    format      ascii;
    class       volScalarField;
    location    "60";
    object      nut;
}
// * * * * * * * * * * * * * * * * * * * * * * * * * * * * * * * * * * * * * //

dimensions      [0 2 -1 0 0 0 0];

internalField   nonuniform List<scalar> 
283500
(
0.034783689
0.034910707
0.034952358
0.034960904
0.034966799
0.034971078
0.034974392
0.034976926
0.034978804
0.034980162
0.03498111
0.034981734
0.034982113
0.034982351
0.034982484
0.034982484
0.034982351
0.034982113
0.034981734
0.03498111
0.034980162
0.034978804
0.034976926
0.034974392
0.034971078
0.034966799
0.034960904
0.034952358
0.034910707
0.034783689
0.034099415
0.034475335
0.034588968
0.034612897
0.034628815
0.034640295
0.034649141
0.034655895
0.034660907
0.034664534
0.034667069
0.034668739
0.034669753
0.034670389
0.034670744
0.034670744
0.034670389
0.034669753
0.034668739
0.034667069
0.034664534
0.034660907
0.034655895
0.034649141
0.034640295
0.034628815
0.034612897
0.034588968
0.034475335
0.034099415
0.033139116
0.033863882
0.034074742
0.034120038
0.034149021
0.034169761
0.034185648
0.034197745
0.034206717
0.034213211
0.034217753
0.034220744
0.034222562
0.034223699
0.034224332
0.034224332
0.034223699
0.034222562
0.034220744
0.034217753
0.034213211
0.034206717
0.034197745
0.034185648
0.034169761
0.034149021
0.034120038
0.034074742
0.033863882
0.033139116
0.031973997
0.033105907
0.033434206
0.03350612
0.033550605
0.033582165
0.033606144
0.033624321
0.03363779
0.03364754
0.033654359
0.033658849
0.033661578
0.033663283
0.033664229
0.033664229
0.033663283
0.033661578
0.033658849
0.033654359
0.03364754
0.03363779
0.033624321
0.033606144
0.033582165
0.033550605
0.03350612
0.033434206
0.033105907
0.031973996
0.03068093
0.032233515
0.032692891
0.03279504
0.032856789
0.032900244
0.032932988
0.032957684
0.032975945
0.03298915
0.032998383
0.033004467
0.033008164
0.03301047
0.033011746
0.033011746
0.03301047
0.033008164
0.033004467
0.032998383
0.03298915
0.032975945
0.032957684
0.032932988
0.032900244
0.032856789
0.03279504
0.032692891
0.032233515
0.030680929
0.02932865
0.03128029
0.031877322
0.03201181
0.032091696
0.032147426
0.032189078
0.032220322
0.032243362
0.032260001
0.032271626
0.032279277
0.032283924
0.032286817
0.032288416
0.032288416
0.032286817
0.032283924
0.032279277
0.032271626
0.032260001
0.032243362
0.032220322
0.032189078
0.032147426
0.032091696
0.03201181
0.031877322
0.03128029
0.029328649
0.027971372
0.030277968
0.031012844
0.031180552
0.031278659
0.031346469
0.031396745
0.031434233
0.031461791
0.031481654
0.031495513
0.031504623
0.031510146
0.031513579
0.031515476
0.031515476
0.031513579
0.031510146
0.031504623
0.031495513
0.031481654
0.031461791
0.031434233
0.031396745
0.031346469
0.031278659
0.031180552
0.031012844
0.030277968
0.027971371
0.02664744
0.029253893
0.030121731
0.030322675
0.030438516
0.030517802
0.030576117
0.03061932
0.030650963
0.030673713
0.030689558
0.030699952
0.03070624
0.030710142
0.030712299
0.030712299
0.030710142
0.03070624
0.030699952
0.030689558
0.030673713
0.030650963
0.03061932
0.030576117
0.030517802
0.030438516
0.030322675
0.030121731
0.029253893
0.02664744
0.025381176
0.028229917
0.029222279
0.029455926
0.029588662
0.029678574
0.02974417
0.029792431
0.029827631
0.029852863
0.029870394
0.029881865
0.029888782
0.029893068
0.029895439
0.029895439
0.029893068
0.029888782
0.029881865
0.029870394
0.029852863
0.029827631
0.029792431
0.02974417
0.029678574
0.029588662
0.029455926
0.029222279
0.028229917
0.025381175
0.024186007
0.027222438
0.028328753
0.028594252
0.028742874
0.028842454
0.028914499
0.028967115
0.029005308
0.029032589
0.029051488
0.029063814
0.02907122
0.0290758
0.029078337
0.029078337
0.0290758
0.02907122
0.029063814
0.029051488
0.029032589
0.029005308
0.028967115
0.028914499
0.028842454
0.028742874
0.028594252
0.028328753
0.027222438
0.024186007
0.023067609
0.026243089
0.02745181
0.027748149
0.027911611
0.028019894
0.028097558
0.028153833
0.028194462
0.028223363
0.028243316
0.028256278
0.028264032
0.028268818
0.028271474
0.028271474
0.028268818
0.028264032
0.028256278
0.028243316
0.028223363
0.028194462
0.028153833
0.028097558
0.028019894
0.027911611
0.027748149
0.02745181
0.026243088
0.023067608
0.022026492
0.025299618
0.026599105
0.026925208
0.027102513
0.027218593
0.027301096
0.027360378
0.027402919
0.027433038
0.027453745
0.027467136
0.027475104
0.027480011
0.02748274
0.02748274
0.027480011
0.027475104
0.027467136
0.027453745
0.027433038
0.027402919
0.027360378
0.027301096
0.027218593
0.027102513
0.026925208
0.026599105
0.025299618
0.022026491
0.02105991
0.024396752
0.025775883
0.026130685
0.026320935
0.026444004
0.026530642
0.026592343
0.026636318
0.026667283
0.02668847
0.026702097
0.026710156
0.026715105
0.026717865
0.026717865
0.026715105
0.026710156
0.026702097
0.02668847
0.026667283
0.026636318
0.026592343
0.026530642
0.026444004
0.026320935
0.026130685
0.025775883
0.024396752
0.021059909
0.020163143
0.023536929
0.024985501
0.025367993
0.025570414
0.025699781
0.02578994
0.025853544
0.025898528
0.025930007
0.025951423
0.02596511
0.025973146
0.025978065
0.025980818
0.025980818
0.025978065
0.025973146
0.02596511
0.025951423
0.025930007
0.025898528
0.025853544
0.02578994
0.025699781
0.025570414
0.025367993
0.024985501
0.023536929
0.020163142
0.019330344
0.022720878
0.024229837
0.024639117
0.024853067
0.024988163
0.025081324
0.025146387
0.025192009
0.025223707
0.025245129
0.025258717
0.025266625
0.025271448
0.025274157
0.025274157
0.025271448
0.025266625
0.025258717
0.025245129
0.025223707
0.025192009
0.025146387
0.025081324
0.024988163
0.024853067
0.024639117
0.024229836
0.022720878
0.019330343
0.018555205
0.021948067
0.02350963
0.023944929
0.024169901
0.024310278
0.024406012
0.024472163
0.024518104
0.024549762
0.02457099
0.024584334
0.024592019
0.024596685
0.024599317
0.024599317
0.024596685
0.024592019
0.024584334
0.02457099
0.024549762
0.024518104
0.024472163
0.024406012
0.024310278
0.024169901
0.023944929
0.02350963
0.021948066
0.018555204
0.017831568
0.021217058
0.022824749
0.023285445
0.023521062
0.023666381
0.023764344
0.023831281
0.023877272
0.023908666
0.023929522
0.023942492
0.023949867
0.023954318
0.023956843
0.023956843
0.023954318
0.023949867
0.023942492
0.023929522
0.023908666
0.023877272
0.023831281
0.023764344
0.023666381
0.023521062
0.023285445
0.022824748
0.021217057
0.017831567
0.017153837
0.020525798
0.022174388
0.022660026
0.022906026
0.023056054
0.023155982
0.023223466
0.023269283
0.023300221
0.023320548
0.023333026
0.02334001
0.023344195
0.023346583
0.023346583
0.023344195
0.02334001
0.023333026
0.023320548
0.023300221
0.023269283
0.023223466
0.023155982
0.023056054
0.022906026
0.022660026
0.022174388
0.020525798
0.017153836
0.016517175
0.019871841
0.021557238
0.02206753
0.02232376
0.022478358
0.02258006
0.022647908
0.022693369
0.022723688
0.02274335
0.02275523
0.022761749
0.022765618
0.022767842
0.022767842
0.022765618
0.022761749
0.02275523
0.02274335
0.022723688
0.022693369
0.022647908
0.02258006
0.022478358
0.02232376
0.02206753
0.021557238
0.01987184
0.016517174
0.015917549
0.019252511
0.020971608
0.021506444
0.021772844
0.021931956
0.022035306
0.022103388
0.022148351
0.022177918
0.022196794
0.022207983
0.022213969
0.022217477
0.022219511
0.022219511
0.022217477
0.022213969
0.022207983
0.022196794
0.022177918
0.022148351
0.022103388
0.022035306
0.021931956
0.021772844
0.021506444
0.020971608
0.019252511
0.015917548
0.015351663
0.018665038
0.020415541
0.020974981
0.021251577
0.021415215
0.021520145
0.021588379
0.021632738
0.021661445
0.021679435
0.021689848
0.021695239
0.021698344
0.021700165
0.021700165
0.021698344
0.021695239
0.021689848
0.021679435
0.021661445
0.021632738
0.021588379
0.021520145
0.021415215
0.021251577
0.020974981
0.020415541
0.018665038
0.015351663
0.014816834
0.018106643
0.019886888
0.020471156
0.020758055
0.020926283
0.021032777
0.021101125
0.021144807
0.021172573
0.021189592
0.021199156
0.021203898
0.021206561
0.021208148
0.021208148
0.021206561
0.021203898
0.021199156
0.021189592
0.021172573
0.021144807
0.021101125
0.021032777
0.020926283
0.020758055
0.020471156
0.019886888
0.018106642
0.014816834
0.014310838
0.017574599
0.019383379
0.019992853
0.020290231
0.020463161
0.020571241
0.020639705
0.020682669
0.020709435
0.020725418
0.020734073
0.020738114
0.020740303
0.020741634
0.020741634
0.020740303
0.020738114
0.020734073
0.020725418
0.020709435
0.020682669
0.020639705
0.020571241
0.020463161
0.020290231
0.019992853
0.019383379
0.017574599
0.014310837
0.013831768
0.017066278
0.018902668
0.019537863
0.01984597
0.020023746
0.020133465
0.02020208
0.020244315
0.020270045
0.020284943
0.020292639
0.020295939
0.020297621
0.020298679
0.020298679
0.020297621
0.020295939
0.020292639
0.020284943
0.020270045
0.020244315
0.02020208
0.020133465
0.020023746
0.01984597
0.019537863
0.018902668
0.017066278
0.013831767
0.01337791
0.016579167
0.018442368
0.01910392
0.019423074
0.019605867
0.019717299
0.019786128
0.019827648
0.019852332
0.019866112
0.019872815
0.019875337
0.019876484
0.019877252
0.019877252
0.019876484
0.019875337
0.019872815
0.019866112
0.019852332
0.019827648
0.019786128
0.019717299
0.019605867
0.019423074
0.01910392
0.018442368
0.016579167
0.01337791
0.012947657
0.016110904
0.018000082
0.018688725
0.019019312
0.019207313
0.019320544
0.019389669
0.019430516
0.019454163
0.019466812
0.019472498
0.019474214
0.019474799
0.019475261
0.019475261
0.019474799
0.019474214
0.019472498
0.019466812
0.019454163
0.019430516
0.019389669
0.019320544
0.019207313
0.019019312
0.018688725
0.018000082
0.016110904
0.012947656
0.01253944
0.0156593
0.017573446
0.01828996
0.018632436
0.018825851
0.018940973
0.019010487
0.01905072
0.019073364
0.019084886
0.019089548
0.019090435
0.019090435
0.019090576
0.019090576
0.019090435
0.019090435
0.019089548
0.019084886
0.019073364
0.01905072
0.019010487
0.018940973
0.018825851
0.018632436
0.01828996
0.017573446
0.0156593
0.01253944
0.012151689
0.015222364
0.017160178
0.017905332
0.018260204
0.018459248
0.018576347
0.018646345
0.018686034
0.018707729
0.018718148
0.018721794
0.018721839
0.018721232
0.01872104
0.01872104
0.018721232
0.018721839
0.018721794
0.018718148
0.018707729
0.018686034
0.018646345
0.018576347
0.018459248
0.018260204
0.017905332
0.017160177
0.015222364
0.012151688
0.011782808
0.014798311
0.016758127
0.017532614
0.017900424
0.018105309
0.018224462
0.018295027
0.018334243
0.018355054
0.018364411
0.018367066
0.018366264
0.018365034
0.018364499
0.018364499
0.018365034
0.018366264
0.018367066
0.018364411
0.018355054
0.018334243
0.018295027
0.018224462
0.018105309
0.017900424
0.017532614
0.016758126
0.014798311
0.011782808
0.011431188
0.014385564
0.01636532
0.017169694
0.017550994
0.017761925
0.017883189
0.017954387
0.017993194
0.01801319
0.018021541
0.018023242
0.0180216
0.01801973
0.018018844
0.018018844
0.01801973
0.0180216
0.018023242
0.018021541
0.01801319
0.017993194
0.017954387
0.017883189
0.017761925
0.017550994
0.017169694
0.01636532
0.014385564
0.011431188
0.011095225
0.013982749
0.015979999
0.016814615
0.017209948
0.017427111
0.017550522
0.017622397
0.017660847
0.017680097
0.017687506
0.017688302
0.017685836
0.017683313
0.017682068
0.017682068
0.017683313
0.017685836
0.017688302
0.017687506
0.017680097
0.017660847
0.017622397
0.017550522
0.017427111
0.017209948
0.016814615
0.015979999
0.013982749
0.011095225
0.010773343
0.013588682
0.015600648
0.016465615
0.016875487
0.017099046
0.01722462
0.01729719
0.017335319
0.017353887
0.017360421
0.017360372
0.017357108
0.017353927
0.017352319
0.017352319
0.017353927
0.017357108
0.017360372
0.017360421
0.017353887
0.017335319
0.01729719
0.01722462
0.017099046
0.016875487
0.016465615
0.015600648
0.013588682
0.010773342
0.010464029
0.013202361
0.015226017
0.016121167
0.016546023
0.016776116
0.016903848
0.016977103
0.017014929
0.017032873
0.017038603
0.017037776
0.017033753
0.01702991
0.01702794
0.01702794
0.01702991
0.017033753
0.017037776
0.017038603
0.017032873
0.017014929
0.016977103
0.016903848
0.016776116
0.016546023
0.016121167
0.015226017
0.013202361
0.010464028
0.010165856
0.012822937
0.01485512
0.015779994
0.016220202
0.016456934
0.016586803
0.016660711
0.016698236
0.016715601
0.016720596
0.016719064
0.016714329
0.016709832
0.016707501
0.016707501
0.016709832
0.016714329
0.016719064
0.016720596
0.016715601
0.016698236
0.016660711
0.016586803
0.016456934
0.016220202
0.015779994
0.01485512
0.012822937
0.010165856
0.0098775257
0.012449709
0.01448724
0.015441089
0.015896924
0.016140369
0.016272343
0.016346852
0.016384061
0.016400883
0.016405209
0.016403048
0.016397657
0.01639252
0.016389831
0.016389831
0.01639252
0.016397657
0.016403049
0.016405209
0.016400883
0.016384061
0.016346852
0.016272343
0.016140369
0.015896924
0.015441089
0.01448724
0.012449709
0.0098775255
0.0095979025
0.012082113
0.014121914
0.015103722
0.015575353
0.015825559
0.0159596
0.016034643
0.016071511
0.016087816
0.016091536
0.016088822
0.016082837
0.01607708
0.016074035
0.016074035
0.01607708
0.016082837
0.016088823
0.016091536
0.016087816
0.016071511
0.016034643
0.0159596
0.015825559
0.015575353
0.015103722
0.014121914
0.012082113
0.0095979024
0.0093260497
0.011719708
0.01375891
0.014767429
0.015254917
0.0155119
0.015647973
0.015723477
0.015759974
0.015775779
0.015778948
0.015775756
0.015769242
0.015762891
0.015759492
0.015759492
0.015762891
0.015769242
0.015775756
0.015778948
0.015775779
0.015759974
0.015723477
0.015647973
0.0155119
0.015254917
0.014767429
0.01375891
0.011719708
0.0093260497
0.0090612831
0.011362177
0.013398201
0.014431995
0.01493529
0.015199042
0.015337117
0.015413013
0.01544911
0.015464426
0.015467092
0.015463491
0.015456514
0.015449598
0.015445848
0.015445848
0.015449598
0.015456514
0.015463491
0.015467092
0.015464426
0.01544911
0.015413013
0.015337117
0.015199042
0.01493529
0.014431995
0.013398201
0.011362177
0.009061283
0.0088032029
0.011009338
0.013039939
0.014097434
0.014616382
0.014886871
0.015026933
0.015103157
0.015138833
0.015153668
0.015155874
0.015151924
0.015144546
0.015137099
0.015133003
0.015133003
0.015137099
0.015144546
0.015151924
0.015155874
0.015153668
0.015138833
0.015103157
0.015026933
0.014886871
0.014616382
0.014097434
0.013039939
0.011009337
0.0088032029
0.008551732
0.010661143
0.012684424
0.013763948
0.014298297
0.014575478
0.014717525
0.01479403
0.014829272
0.014843636
0.014845421
0.014841174
0.014833453
0.014825508
0.014821072
0.014821072
0.014825508
0.014833453
0.014841174
0.014845421
0.014843636
0.014829272
0.01479403
0.014717525
0.014575478
0.014298298
0.013763948
0.012684424
0.010661143
0.0085517321
0.0083071421
0.010317706
0.012332081
0.013431906
0.013981318
0.014265132
0.014409179
0.014485932
0.01452074
0.014534645
0.014536046
0.01453155
0.014523535
0.01451513
0.014510359
0.014510359
0.01451513
0.014523535
0.01453155
0.014536046
0.014534645
0.01452074
0.014485932
0.014409179
0.014265132
0.013981318
0.013431906
0.012332081
0.010317706
0.0083071421
0.0080700901
0.0099793196
0.011983454
0.013101818
0.013665872
0.013956251
0.014102331
0.01417932
0.014213708
0.014227171
0.014228223
0.014223518
0.014215255
0.014206423
0.014201328
0.014201328
0.014206424
0.014215255
0.014223518
0.014228223
0.014227171
0.014213708
0.01417932
0.014102331
0.013956251
0.013665872
0.013101818
0.011983454
0.0099793193
0.0080700902
0.0078416203
0.0096464838
0.011639191
0.012774307
0.013352499
0.013649362
0.013797521
0.013874753
0.013908758
0.013921801
0.01392254
0.01391766
0.013909188
0.013899967
0.013894557
0.013894557
0.013899967
0.013909188
0.01391766
0.01392254
0.013921801
0.013908758
0.013874753
0.013797521
0.013649362
0.013352499
0.012774307
0.01163919
0.0096464835
0.0078416205
0.0076231728
0.0093199318
0.011300043
0.01245009
0.013041834
0.01334509
0.013495386
0.013572887
0.01360655
0.013619211
0.013619673
0.013614648
0.013606002
0.013596428
0.013590718
0.013590718
0.013596428
0.013606002
0.013614648
0.013619673
0.013619211
0.01360655
0.013572887
0.013495386
0.01334509
0.013041834
0.01245009
0.011300043
0.0093199315
0.007623173
0.0074165786
0.0090006621
0.01096688
0.012129973
0.012734605
0.013044138
0.013196635
0.013274449
0.013307825
0.013320138
0.013320365
0.013315221
0.013306431
0.013296542
0.013290548
0.013290548
0.013296542
0.013306431
0.013315221
0.013320365
0.013320138
0.013307825
0.013274449
0.013196635
0.013044138
0.012734605
0.012129973
0.01096688
0.0090006619
0.0074165788
0.0072240373
0.0086899232
0.010640692
0.011814849
0.012431606
0.012747271
0.012902028
0.012980211
0.013013366
0.013025373
0.013025402
0.013020166
0.013011257
0.013001089
0.012994832
0.012994832
0.013001089
0.013011257
0.013020166
0.013025402
0.013025373
0.013013366
0.012980211
0.012902028
0.012747271
0.012431606
0.011814849
0.010640692
0.008689923
0.0072240376
0.0070480959
0.0083892369
0.010322608
0.011505706
0.012133701
0.012455305
0.012612373
0.012690988
0.012723994
0.012735742
0.012735609
0.012730306
0.012721303
0.012710894
0.012704396
0.012704396
0.012710894
0.012721303
0.012730306
0.012735609
0.012735742
0.012723994
0.012690988
0.012612374
0.012455305
0.012133701
0.011505706
0.010322608
0.0083892367
0.0070480962
0.0068916166
0.0081004149
0.010013924
0.011203639
0.011841832
0.012169121
0.012328526
0.012407636
0.01244057
0.01245211
0.012451851
0.012446501
0.012437431
0.012426819
0.012420104
0.012420104
0.012426819
0.012437431
0.012446501
0.012451851
0.01245211
0.01244057
0.012407636
0.012328526
0.012169121
0.011841833
0.011203639
0.010013924
0.0081004146
0.006891617
0.0067577328
0.00782555
0.0097161052
0.010909862
0.011557029
0.011889658
0.012051392
0.012131056
0.012163995
0.01217538
0.012175034
0.012169654
0.012160539
0.012149762
0.012142857
0.012142857
0.012149762
0.012160539
0.012169654
0.012175034
0.012175381
0.012163995
0.012131057
0.012051392
0.011889658
0.011557029
0.010909862
0.0097161051
0.0078255498
0.0067577333
0.0066498096
0.0075670114
0.0094308028
0.010625725
0.011280421
0.011617936
0.011781941
0.011862204
0.011895219
0.011906507
0.011906112
0.011900722
0.011891583
0.011880681
0.011873616
0.011873616
0.011880681
0.011891583
0.011900722
0.011906112
0.011906507
0.011895219
0.011862204
0.011781942
0.011617936
0.011280421
0.010625725
0.0094308028
0.0075670112
0.0066498101
0.0065714042
0.0073274176
0.0091598608
0.010352738
0.01101326
0.011355071
0.011521223
0.011602105
0.011635262
0.011646507
0.011646105
0.011640726
0.011631586
0.011620601
0.011613407
0.011613407
0.011620601
0.011631586
0.011640726
0.011646105
0.011646507
0.011635262
0.011602105
0.011521223
0.011355071
0.01101326
0.010352738
0.0091598607
0.0073274174
0.0065714047
0.0065262283
0.0071095396
0.0089053068
0.010092574
0.010756934
0.011102285
0.01127038
0.011351871
0.01138522
0.011396474
0.011396105
0.011390762
0.011381649
0.011370622
0.011363333
0.011363333
0.011370622
0.011381649
0.011390762
0.011396105
0.011396474
0.01138522
0.011351871
0.01127038
0.011102285
0.010756934
0.010092574
0.0089053067
0.0071095394
0.0065262289
0.0065181368
0.0069162717
0.0086693423
0.0098470798
0.010512983
0.010860931
0.011030665
0.011112711
0.011146283
0.011157592
0.011157297
0.011152018
0.01114296
0.011131938
0.011124591
0.011124591
0.011131938
0.01114296
0.011152018
0.011157297
0.011157592
0.011146283
0.011112711
0.011030665
0.010860931
0.010512983
0.0098470798
0.0086693422
0.0069162715
0.0065181376
0.0065511341
0.006750606
0.0084543234
0.0096182796
0.010283114
0.010632504
0.010803459
0.010885955
0.010919755
0.010931156
0.010930972
0.010925788
0.01091682
0.010905849
0.010898481
0.010898481
0.010905849
0.01091682
0.010925788
0.010930972
0.010931156
0.010919755
0.010885955
0.010803459
0.010632504
0.010283114
0.0096182796
0.0084543233
0.0067506058
0.0065511349
0.006629396
0.0066155669
0.0082627296
0.0094083689
0.010069205
0.010418653
0.01059028
0.010673056
0.01070706
0.010718577
0.010718538
0.010713479
0.010704638
0.010693768
0.010686419
0.010686419
0.010693768
0.010704638
0.010713479
0.010718538
0.010718577
0.01070706
0.010673056
0.01059028
0.010418653
0.010069205
0.0094083689
0.0082627296
0.0066155668
0.0066293969
0.0067573164
0.0065141855
0.0080971365
0.0092197031
0.0098733106
0.010221189
0.010392795
0.010475606
0.010509752
0.010521393
0.010521526
0.010516625
0.01050795
0.010497233
0.010489941
0.010489941
0.010497233
0.01050795
0.010516625
0.010521526
0.010521393
0.010509752
0.010475606
0.010392795
0.010221189
0.0098733106
0.0092197031
0.0080971365
0.0065141854
0.0067573174
0.0069395647
0.0064494903
0.0079601925
0.0090547802
0.0096976557
0.010042092
0.010212824
0.010295341
0.010329524
0.010341276
0.010341601
0.010336887
0.010328419
0.010317907
0.010310713
0.010310713
0.010317907
0.010328419
0.010336887
0.010341601
0.010341276
0.010329524
0.010295341
0.010212824
0.010042092
0.0096976558
0.0090547802
0.0079601925
0.0064494902
0.0069395658
0.0071811573
0.0064245207
0.0078545879
0.0089162157
0.0095446271
0.0098835036
0.010052344
0.010134142
0.010168204
0.010180031
0.010180556
0.010176057
0.010167837
0.01015758
0.010150524
0.010150524
0.01015758
0.010167837
0.010176057
0.010180556
0.010180031
0.010168204
0.010134142
0.010052344
0.0098835037
0.0095446271
0.0089162157
0.0078545878
0.0064245206
0.0071811585
0.0074875304
0.0064423556
0.0077830434
0.0088067249
0.009416761
0.0097477247
0.0099134815
0.0099940335
0.010027762
0.010039598
0.010040317
0.010036053
0.010028121
0.01001817
0.010011287
0.010011287
0.01001817
0.010028121
0.010036053
0.010040317
0.010039598
0.010027762
0.0099940335
0.0099134816
0.0097477247
0.009416761
0.008806725
0.0077830434
0.0064423555
0.0074875318
0.0078646058
0.0065061638
0.0077483084
0.0087291054
0.009316731
0.0096372102
0.0097985159
0.0098771825
0.0099103007
0.0099220452
0.009922935
0.00991892
0.0099113107
0.0099017117
0.0098950392
0.0098950392
0.0099017117
0.0099113107
0.00991892
0.0099229351
0.0099220453
0.0099103007
0.0098771826
0.009798516
0.0096372102
0.0093167311
0.0087291054
0.0077483083
0.0065061638
0.0078646073
0.0083188316
0.0066192669
0.0077531658
0.0086862209
0.0092473318
0.0095545566
0.0097098666
0.0097858912
0.009818052
0.0098295664
0.0098305824
0.0098268195
0.0098195634
0.0098103585
0.0098039279
0.0098039279
0.0098103585
0.0098195634
0.0098268196
0.0098305824
0.0098295665
0.0098180521
0.0097858913
0.0097098667
0.0095545566
0.0092473319
0.0086862209
0.0077531658
0.0066192669
0.0083188334
0.0088572966
0.0067852086
0.0078004519
0.0086809981
0.0092114689
0.009502495
0.0096500904
0.0097225932
0.0097533737
0.0097644746
0.0097655472
0.009762027
0.0097551464
0.0097463711
0.0097402105
0.0097402105
0.0097463711
0.0097551464
0.009762027
0.0097655472
0.0097644747
0.0097533737
0.0097225932
0.0096500905
0.0095024951
0.009211469
0.0086809981
0.0078004518
0.0067852085
0.0088572986
0.0094877476
0.007007823
0.0078930841
0.0087164266
0.0092121505
0.009483884
0.0096218758
0.0096898494
0.0097187446
0.0097291993
0.0097302301
0.0097269268
0.0097204344
0.0097121164
0.0097062489
0.0097062489
0.0097121164
0.0097204344
0.0097269268
0.0097302301
0.0097291994
0.0097187447
0.0096898494
0.0096218758
0.009483884
0.0092121505
0.0087164265
0.007893084
0.007007823
0.0094877498
0.010218639
0.0072913017
0.0080340979
0.0087955674
0.0092524845
0.0095017042
0.0096280383
0.0096903441
0.0097167614
0.0097262823
0.0097271399
0.0097240085
0.0097179046
0.0097100626
0.0097045062
0.0097045062
0.0097100626
0.0097179046
0.0097240085
0.0097271399
0.0097262823
0.0097167614
0.0096903442
0.0096280383
0.0095017042
0.0092524845
0.0087955674
0.0080340978
0.0072913018
0.010218641
0.011059154
0.0076402556
0.0082266861
0.0089215703
0.0093356824
0.0095590598
0.0096715214
0.0097268861
0.0097501391
0.0097583783
0.0097588947
0.0097558679
0.0097501381
0.0097427802
0.0097375466
0.0097375466
0.0097427802
0.0097501381
0.009755868
0.0097588948
0.0097583783
0.0097501392
0.0097268861
0.0096715215
0.0095590599
0.0093356824
0.0089215702
0.008226686
0.0076402556
0.011059157
0.01201921
0.0080601577
0.0084742399
0.0090976917
0.0094650661
0.009659182
0.0097554002
0.0098024109
0.0098217144
0.0098282581
0.0098282245
0.0098252088
0.0098198212
0.0098129441
0.0098080383
0.0098080383
0.0098129441
0.0098198212
0.0098252088
0.0098282245
0.0098282581
0.0098217144
0.0098024109
0.0097554002
0.0096591821
0.0094650661
0.0090976917
0.0084742398
0.0080601578
0.012019213
0.013109459
0.0085573871
0.008780393
0.0093273218
0.0096440812
0.0098054365
0.0098828878
0.0099199886
0.0099344519
0.0099388154
0.0099379769
0.0099348495
0.0099297529
0.0099233398
0.0099187599
0.0099187599
0.0099233398
0.0099297529
0.0099348495
0.0099379769
0.0099388154
0.0099344519
0.0099199886
0.0098828878
0.0098054366
0.0096440811
0.0093273217
0.0087803928
0.0085573872
0.013109462
0.014341222
0.0091380686
0.0091490423
0.009614003
0.0098763099
0.010001334
0.010057345
0.010082832
0.010091453
0.010093074
0.010091126
0.010087731
0.010082852
0.010076873
0.010072609
0.010072609
0.010076873
0.010082852
0.010087731
0.010091126
0.010093074
0.010091453
0.010082832
0.010057345
0.010001334
0.0098763098
0.009614003
0.0091490421
0.0091380687
0.014341226
0.015726427
0.0098088027
0.009584365
0.0099614457
0.010165482
0.010250538
0.010282285
0.010294305
0.010295961
0.010294196
0.010290776
0.010286921
0.010282164
0.010276572
0.010272606
0.010272606
0.010276572
0.010282164
0.010286921
0.010290776
0.010294196
0.010295961
0.010294305
0.010282285
0.010250538
0.010165482
0.0099614456
0.0095843648
0.009808803
0.015726431
0.017277482
0.010576738
0.010090845
0.010373553
0.01051549
0.010556877
0.010561389
0.01055793
0.010551377
0.010545489
0.010540178
0.010535631
0.010530871
0.010525604
0.01052191
0.01052191
0.010525604
0.010530871
0.010535631
0.010540178
0.010545489
0.010551377
0.01055793
0.010561389
0.010556877
0.01051549
0.010373553
0.010090845
0.010576739
0.017277486
0.0190069
0.011449602
0.010673278
0.010854433
0.010930401
0.010924356
0.010898516
0.010877409
0.01086127
0.01085043
0.010842741
0.010837226
0.010832313
0.01082729
0.010823833
0.010823833
0.01082729
0.010832313
0.010837226
0.010842741
0.01085043
0.01086127
0.010877409
0.010898516
0.010924356
0.010930401
0.010854433
0.010673278
0.011449602
0.019006906
0.020927504
0.012435721
0.011336772
0.0114084
0.011414465
0.011357166
0.011297717
0.01125663
0.011229394
0.01121267
0.011202046
0.01119524
0.011189991
0.011185113
0.011181848
0.011181848
0.011185113
0.011189991
0.01119524
0.011202046
0.01121267
0.011229394
0.01125663
0.011297717
0.011357166
0.011414465
0.0114084
0.011336772
0.012435722
0.02092751
0.023051935
0.013544067
0.012086787
0.012039975
0.011972125
0.011859697
0.011763245
0.011699684
0.011659694
0.011636047
0.011621855
0.011613385
0.011607583
0.01160273
0.011599602
0.011599602
0.01160273
0.011607583
0.011613385
0.011621855
0.011636047
0.011659694
0.011699684
0.011763245
0.011859697
0.011972124
0.012039975
0.012086786
0.013544068
0.023051941
0.025392237
0.014784266
0.012929123
0.012753883
0.012608002
0.01243653
0.012299548
0.012210851
0.012156306
0.012124583
0.01210611
0.012095545
0.012088938
0.012083967
0.01208091
0.01208091
0.012083967
0.012088938
0.012095545
0.01210611
0.012124583
0.012156306
0.012210851
0.012299548
0.01243653
0.012608002
0.012753883
0.012929122
0.014784267
0.025392244
0.027959335
0.016166593
0.013869901
0.013555029
0.013326877
0.013092415
0.012911255
0.012794599
0.012723548
0.012682476
0.012658924
0.012645773
0.012638068
0.012632813
0.012629751
0.012629751
0.012632813
0.012638068
0.012645773
0.012658924
0.012682476
0.012723548
0.012794599
0.012911255
0.013092415
0.013326877
0.013555028
0.013869901
0.016166593
0.027959343
0.030762433
0.017701982
0.014915542
0.014448489
0.014133671
0.013832269
0.013603173
0.013455579
0.013365918
0.013314103
0.013284581
0.013268292
0.013259155
0.013253423
0.013250268
0.013250268
0.013253423
0.013259155
0.013268292
0.013284581
0.013314103
0.013365918
0.013455579
0.013603173
0.013832269
0.014133671
0.014448489
0.014915542
0.017701983
0.030762442
0.033808312
0.019401958
0.016072783
0.015439485
0.015033424
0.014661143
0.014380268
0.014198604
0.014088081
0.014024005
0.01398753
0.013967482
0.013956533
0.013950107
0.013946756
0.013946756
0.013950107
0.013956533
0.013967482
0.01398753
0.014024005
0.01408808
0.014198604
0.014380267
0.014661143
0.015033424
0.015439485
0.016072783
0.019401959
0.033808322
0.037100902
0.021278503
0.017348685
0.016533352
0.016031256
0.015584195
0.015247633
0.015028638
0.014894853
0.014816872
0.014772363
0.014747868
0.014734682
0.014727312
0.01472365
0.01472365
0.014727312
0.014734682
0.014747868
0.014772363
0.014816872
0.014894853
0.015028638
0.015247633
0.015584194
0.016031255
0.016533351
0.017348684
0.021278505
0.037100913
0.04064031
0.023343914
0.018750664
0.017735534
0.017132346
0.016606663
0.016210484
0.015950779
0.015791194
0.015697537
0.015643816
0.015614113
0.015598212
0.015589622
0.015585518
0.015585518
0.015589622
0.015598212
0.015614113
0.015643816
0.015697537
0.015791194
0.015950779
0.016210484
0.016606662
0.017132346
0.017735534
0.018750663
0.023343915
0.040640322
0.044422012
0.025610527
0.020286499
0.019051559
0.018341895
0.017733826
0.017274106
0.016970216
0.016782161
0.016670936
0.016606725
0.016570978
0.016551837
0.016541716
0.016537026
0.016537026
0.016541716
0.016551837
0.016570977
0.016606725
0.016670936
0.016782161
0.016970215
0.017274106
0.017733826
0.018341894
0.019051558
0.020286499
0.025610529
0.044422025
0.048436437
0.028090206
0.021964322
0.020487007
0.01966507
0.018970957
0.018443812
0.018092184
0.017872869
0.017742064
0.017665988