/*--------------------------------*- C++ -*----------------------------------*\
  =========                 |
  \\      /  F ield         | OpenFOAM: The Open Source CFD Toolbox
   \\    /   O peration     | Website:  https://openfoam.org
    \\  /    A nd           | Version:  8
     \\/     M anipulation  |
\*---------------------------------------------------------------------------*/
/*   Windows 32 and 64 bit porting by blueCAPE: http://www.bluecape.com.pt   *\
|  Based on Windows porting (2.0.x v4) by Symscape: http://www.symscape.com   |
\*---------------------------------------------------------------------------*/
FoamFile
{
    version     2.0;
    format      ascii;
    class       volScalarField;
    location    "60";
    object      p;
}
// * * * * * * * * * * * * * * * * * * * * * * * * * * * * * * * * * * * * * //

dimensions      [1 -1 -2 0 0 0 0];

internalField   nonuniform List<scalar> 
283500
(
8205.0535
8196.0711
8193.1794
8191.2065
8190.0353
8189.2796
8188.7803
8188.4428
8188.2115
8188.0515
8187.9408
8187.865
8187.8148
8187.7841
8187.7696
8187.7696
8187.7841
8187.8148
8187.865
8187.9408
8188.0515
8188.2115
8188.4428
8188.7803
8189.2796
8190.0353
8191.2065
8193.1794
8196.0711
8205.0535
8190.247
8186.4275
8184.9143
8183.2346
8182.1742
8181.4375
8180.9338
8180.5854
8180.3428
8180.1734
8180.0553
8179.974
8179.9199
8179.8868
8179.8712
8179.8712
8179.8868
8179.9199
8179.974
8180.0553
8180.1734
8180.3428
8180.5854
8180.9338
8181.4375
8182.1742
8183.2346
8184.9143
8186.4275
8190.247
8182.7834
8181.0537
8180.2862
8178.8846
8177.968
8177.2474
8176.7256
8176.349
8176.0792
8175.8869
8175.7507
8175.6561
8175.5926
8175.5535
8175.535
8175.535
8175.5535
8175.5926
8175.6561
8175.7507
8175.8869
8176.0792
8176.349
8176.7256
8177.2474
8177.968
8178.8846
8180.2862
8181.0537
8182.7834
8182.3943
8180.8499
8180.0113
8178.6345
8177.7385
8176.9713
8176.3979
8175.9698
8175.6546
8175.4245
8175.259
8175.1423
8175.0634
8175.0145
8174.9912
8174.9912
8175.0145
8175.0634
8175.1423
8175.259
8175.4245
8175.6546
8175.9698
8176.3979
8176.9713
8177.7385
8178.6345
8180.0113
8180.8499
8182.3943
8184.2655
8182.6648
8181.6207
8180.1341
8179.1461
8178.2672
8177.6041
8177.0972
8176.7175
8176.4362
8176.2309
8176.0842
8175.984
8175.9217
8175.8919
8175.8919
8175.9217
8175.984
8176.0842
8176.2309
8176.4362
8176.7175
8177.0972
8177.6041
8178.2672
8179.1461
8180.1341
8181.6207
8182.6648
8184.2655
8186.3378
8184.8146
8183.6902
8182.103
8180.9999
8179.9902
8179.2185
8178.6141
8178.1541
8177.8086
8177.5535
8177.3695
8177.243
8177.1639
8177.1259
8177.1259
8177.1639
8177.243
8177.3695
8177.5535
8177.8086
8178.1541
8178.6141
8179.2185
8179.9902
8180.9999
8182.103
8183.6902
8184.8146
8186.3378
8188.4473
8187.0556
8185.9304
8184.2814
8183.0831
8181.9504
8181.0678
8180.3592
8179.811
8179.3929
8179.0804
8178.8532
8178.6958
8178.5968
8178.5491
8178.5491
8178.5968
8178.6958
8178.8532
8179.0804
8179.3929
8179.811
8180.3592
8181.0678
8181.9504
8183.0831
8184.2814
8185.9304
8187.0556
8188.4473
8190.704
8189.4509
8188.3568
8186.6747
8185.4051
8184.161
8183.1698
8182.3539
8181.7121
8181.215
8180.8389
8180.5627
8180.37
8180.2482
8180.1892
8180.1892
8180.2482
8180.37
8180.5627
8180.8389
8181.215
8181.7121
8182.3539
8183.1698
8184.161
8185.4051
8186.6747
8188.3568
8189.4509
8190.704
8193.0632
8191.9616
8190.9241
8189.2391
8187.9233
8186.5828
8185.489
8184.5657
8183.827
8183.2455
8182.7999
8182.4694
8182.2371
8182.0895
8182.0177
8182.0177
8182.0895
8182.2371
8182.4694
8182.7999
8183.2455
8183.827
8184.5657
8185.489
8186.5828
8187.9233
8189.2391
8190.9241
8191.9616
8193.0632
8195.4362
8194.5004
8193.5436
8191.8922
8190.5623
8189.1474
8187.9639
8186.9376
8186.1016
8185.4324
8184.913
8184.5236
8184.2476
8184.0714
8183.9854
8183.9854
8184.0714
8184.2476
8184.5236
8184.913
8185.4324
8186.1016
8186.9376
8187.9639
8189.1474
8190.5623
8191.8922
8193.5436
8194.5004
8195.4362
8197.7788
8197.0117
8196.1515
8194.5693
8193.2597
8191.7987
8190.5447
8189.4257
8188.4966
8187.7394
8187.1438
8186.6923
8186.3697
8186.1625
8186.0611
8186.0611
8186.1625
8186.3697
8186.6923
8187.1438
8187.7394
8188.4966
8189.4257
8190.5447
8191.7987
8193.2597
8194.5693
8196.1515
8197.0117
8197.7788
8200.0878
8199.4763
8198.7195
8197.2355
8195.9776
8194.5006
8193.1998
8192.0034
8190.9895
8190.1477
8189.4761
8188.9609
8188.5897
8188.3499
8188.2321
8188.2321
8188.3499
8188.5897
8188.9609
8189.4761
8190.1477
8190.9895
8192.0034
8193.1998
8194.5006
8195.9776
8197.2355
8198.7195
8199.4763
8200.0878
8202.375
8201.8963
8201.2385
8199.873
8198.693
8197.2298
8195.9083
8194.6533
8193.5671
8192.6472
8191.9023
8191.3239
8190.9034
8190.63
8190.4952
8190.4952
8190.63
8190.9034
8191.3239
8191.9023
8192.6472
8193.5671
8194.6533
8195.9083
8197.2298
8198.693
8199.873
8201.2385
8201.8963
8202.375
8204.6541
8204.2808
8203.708
8202.4728
8201.3904
8199.9681
8198.6528
8197.3612
8196.2187
8195.2306
8194.418
8193.7789
8193.3099
8193.003
8192.8511
8192.8511
8193.003
8193.3099
8193.7789
8194.418
8195.2306
8196.2187
8197.3612
8198.6528
8199.9681
8201.3904
8202.4728
8203.708
8204.2808
8204.6541
8206.9365
8206.6404
8206.1347
8205.0321
8204.0592
8202.7013
8201.4185
8200.1141
8198.9342
8197.8912
8197.0194
8196.3246
8195.8095
8195.4702
8195.3017
8195.3017
8195.4702
8195.8095
8196.3246
8197.0194
8197.8912
8198.9342
8200.1141
8201.4185
8202.7013
8204.0592
8205.0321
8206.1347
8206.6404
8206.9365
8209.2333
8208.9868
8208.5293
8207.5533
8206.6936
8205.4191
8204.193
8202.9001
8201.704
8200.6222
8199.7028
8198.9595
8198.4029
8198.0336
8197.8495
8197.8495
8198.0336
8198.4029
8198.9595
8199.7028
8200.6222
8201.704
8202.9001
8204.193
8205.4191
8206.6936
8207.5533
8208.5293
8208.9868
8209.2333
8211.555
8211.3323
8210.9036
8210.0418
8209.2925
8208.1153
8206.9666
8205.7086
8204.5185
8203.4165
8202.4636
8201.6818
8201.0901
8200.6947
8200.4967
8200.4967
8200.6947
8201.0901
8201.6818
8202.4636
8203.4165
8204.5185
8205.7086
8206.9666
8208.1153
8209.2925
8210.0418
8210.9036
8211.3323
8211.555
8213.9081
8213.6883
8213.2698
8212.5058
8211.8585
8210.7871
8209.7319
8208.5299
8207.3684
8206.2664
8205.2965
8204.4886
8203.8702
8203.4537
8203.2443
8203.2443
8203.4537
8203.8702
8204.4886
8205.2965
8206.2664
8207.3684
8208.5299
8209.7319
8210.7871
8211.8585
8212.5058
8213.2698
8213.6883
8213.9081
8216.2942
8216.0641
8215.6395
8214.955
8214.397
8213.4337
8212.4834
8211.356
8210.2449
8209.1638
8208.1951
8207.3753
8206.7406
8206.3097
8206.0921
8206.0921
8206.3097
8206.7406
8207.3753
8208.1951
8209.1638
8210.2449
8211.356
8212.4834
8213.4337
8214.397
8214.955
8215.6395
8216.0641
8216.2942
8218.7112
8218.4667
8218.0234
8217.3996
8216.9155
8216.0574
8215.2183
8214.1809
8213.14
8212.1006
8211.1523
8210.3364
8209.6973
8209.2598
8209.0379
8209.0379
8209.2598
8209.6973
8210.3364
8211.1523
8212.1006
8213.14
8214.1809
8215.2183
8216.0574
8216.9155
8217.3996
8218.0234
8218.4667
8218.7112
8221.1568
8220.9018
8220.4311
8219.8505
8219.4237
8218.6639
8217.9373
8217.0014
8216.048
8215.0698
8214.1613
8213.3662
8212.7358
8212.3005
8212.0787
8212.0787
8212.3005
8212.7358
8213.3662
8214.1613
8215.0698
8216.048
8217.0014
8217.9373
8218.6639
8219.4237
8219.8505
8220.4311
8220.9018
8221.1568
8223.6302
8223.3742
8222.871
8222.319
8221.933
8221.2617
8220.6442
8219.8173
8218.9652
8218.0658
8217.2157
8216.4586
8215.8507
8215.4272
8215.2105
8215.2105
8215.4272
8215.8507
8216.4586
8217.2157
8218.0658
8218.9652
8219.8173
8220.6442
8221.2617
8221.933
8222.319
8222.871
8223.3742
8223.6302
8226.1319
8225.8874
8225.3499
8224.8158
8224.4551
8223.8606
8223.3452
8222.6301
8221.8898
8221.0842
8220.3098
8219.6072
8219.0359
8218.6341
8218.4275
8218.4275
8218.6341
8219.0359
8219.6072
8220.3098
8221.0842
8221.8898
8222.6301
8223.3452
8223.8606
8224.4551
8224.8158
8225.3499
8225.8874
8226.1319
8228.6618
8228.4438
8227.8726
8227.3496
8227.0012
8226.4711
8226.0477
8225.4434
8224.8212
8224.1214
8223.4378
8222.8051
8222.284
8221.9138
8221.7225
8221.7225
8221.9138
8222.284
8222.8051
8223.4378
8224.1214
8224.8212
8225.4434
8226.0477
8226.4711
8227.0012
8227.3496
8227.8726
8228.4438
8228.6618
8231.2204
8231.0452
8230.4425
8229.928
8229.5815
8229.1036
8228.7605
8228.262
8227.7601
8227.1749
8226.5944
8226.0452
8225.5867
8225.2575
8225.0865
8225.0865
8225.2575
8225.5867
8226.0452
8226.5944
8227.1749
8227.7601
8228.262
8228.7605
8229.1036
8229.5815
8229.928
8230.4425
8231.0452
8231.2204
8233.813
8233.6952
8233.0629
8232.5572
8232.205
8231.7684
8231.493
8231.0924
8230.7088
8230.2431
8229.7749
8229.3201
8228.9351
8228.6551
8228.5088
8228.5088
8228.6551
8228.9351
8229.3201
8229.7749
8230.2431
8230.7088
8231.0924
8231.493
8231.7684
8232.205
8232.5572
8233.0629
8233.6952
8233.813
8236.4488
8236.3983
8235.7376
8235.2433
8234.8798
8234.4754
8234.2552
8233.9423
8233.6711
8233.3257
8232.9752
8232.6228
8232.3195
8232.0955
8231.9776
8231.9776
8232.0955
8232.3195
8232.6228
8232.9752
8233.3257
8233.6711
8233.9423
8234.2552
8234.4754
8234.8798
8235.2433
8235.7376
8236.3983
8236.4488
8239.1335
8239.1591
8238.471
8237.9924
8237.6145
8237.2345
8237.0574
8236.8208
8236.6528
8236.4239
8236.1926
8235.947
8235.7311
8235.5678
8235.4811
8235.4811
8235.5678
8235.7311
8235.947
8236.1926
8236.4239
8236.6528
8236.8208
8237.0574
8237.2345
8237.6145
8237.9924
8238.471
8239.1591
8239.1335
8241.8756
8241.9843
8241.2681
8240.811
8240.4169
8240.0557
8239.9108
8239.7385
8239.6621
8239.5422
8239.4272
8239.2892
8239.163
8239.063
8239.0088
8239.0088
8239.063
8239.163
8239.2892
8239.4272
8239.5422
8239.6621
8239.7385
8239.9108
8240.0557
8240.4169
8240.811
8241.2681
8241.9843
8241.8756
8244.6841
8244.8813
8244.1336
8243.7038
8243.293
8242.9471
8242.8248
8242.7055
8242.708
8242.6865
8242.6811
8242.6476
8242.6102
8242.5738
8242.5525
8242.5525
8242.5738
8242.6102
8242.6476
8242.6811
8242.6865
8242.708
8242.7055
8242.8248
8242.9471
8243.293
8243.7038
8244.1336
8244.8813
8244.6841
8247.5669
8247.8549
8247.0709
8246.6741
8246.2467
8245.9139
8245.8062
8245.7288
8245.7968
8245.861
8245.9549
8246.0192
8246.067
8246.0923
8246.1032
8246.1032
8246.0923
8246.067
8246.0192
8245.9549
8245.861
8245.7968
8245.7288
8245.8062
8245.9139
8246.2467
8246.6741
8247.0709
8247.8549
8247.5669
8250.5307
8250.9091
8250.083
8249.725
8249.281
8248.9603
8248.8599
8248.8135
8248.9328
8249.0683
8249.2483
8249.4004
8249.5268
8249.6098
8249.6509
8249.6509
8249.6098
8249.5268
8249.4004
8249.2483
8249.0683
8248.9328
8248.8135
8248.8599
8248.9603
8249.281
8249.725
8250.083
8250.9091
8250.5307
8253.5811
8254.0485
8253.1746
8252.86
8252.3986
8252.0896
8251.9905
8251.9649
8252.121
8252.3118
8252.5623
8252.7889
8252.9842
8253.1187
8253.187
8253.187
8253.1187
8252.9842
8252.7889
8252.5623
8252.3118
8252.121
8251.9649
8251.9905
8252.0896
8252.3986
8252.86
8253.1746
8254.0485
8253.5811
8256.7224
8257.2774
8256.3512
8256.0827
8255.6019
8255.3047
8255.2017
8255.1879
8255.3665
8255.5959
8255.8992
8256.1846
8256.4364
8256.6143
8256.7057
8256.7057
8256.6143
8256.4364
8256.1846
8255.8992
8255.5959
8255.3665
8255.1879
8255.2017
8255.3047
8255.6019
8256.0827
8256.3512
8257.2774
8256.7224
8259.9584
8260.5998
8259.6179
8259.3963
8258.8931
8258.6075
8258.496
8258.4857
8258.6734
8258.9246
8259.2621
8259.5888
8259.8828
8260.0942
8260.2035
8260.2035
8260.0942
8259.8828
8259.5888
8259.2621
8258.9246
8258.6734
8258.4857
8258.496
8258.6075
8258.8931
8259.3963
8259.6179
8260.5998
8259.9584
8263.2923
8264.0191
8262.9792
8262.8034
8262.2739
8261.9994
8261.8749
8261.8608
8262.0448
8262.3017
8262.6546
8263.004
8263.3243
8263.558
8263.68
8263.68
8263.558
8263.3243
8263.004
8262.6546
8262.3017
8262.0448
8261.8608
8261.8749
8261.9994
8262.2739
8262.8034
8262.9792
8264.0191
8263.2923
8266.7283
8267.5382
8266.4395
8266.3064
8265.7459
8265.4808
8265.3383
8265.3137
8265.4825
8265.7294
8266.0795
8266.4332
8266.7637
8267.0079
8267.1369
8267.1369
8267.0079
8266.7637
8266.4332
8266.0795
8265.7294
8265.4825
8265.3137
8265.3383
8265.4808
8265.7459
8266.3064
8266.4395
8267.5382
8266.7283
8270.272
8271.1593
8270.0014
8269.9072
8269.31
8269.0512
8268.8852
8268.8434
8268.9859
8269.2091
8269.5397
8269.8804
8270.2052
8270.4482
8270.5781
8270.5781
8270.4482
8270.2052
8269.8804
8269.5397
8269.2091
8268.9859
8268.8434
8268.8852
8269.0512
8269.31
8269.9072
8270.0014
8271.1593
8270.272
8273.9262
8274.8834
8273.6672
8273.6073
8272.9668
8272.71
8272.5138
8272.4481
8272.5545
8272.7419
8273.0382
8273.3499
8273.654
8273.8844
8274.0091
8274.0091
8273.8844
8273.654
8273.3499
8273.0382
8272.7419
8272.5545
8272.4481
8272.5138
8272.71
8272.9668
8273.6073
8273.6672
8274.8834
8273.9262
8277.6933
8278.7105
8277.4376
8277.4073
8276.7167
8276.4568
8276.223
8276.1263
8276.1877
8276.3286
8276.5773
8276.846
8277.1161
8277.3233
8277.437
8277.437
8277.3233
8277.1161
8276.846
8276.5773
8276.3286
8276.1877
8276.1263
8276.223
8276.4568
8276.7167
8277.4073
8277.4376
8278.7105
8277.6933
8281.5764
8282.6402
8281.3132
8281.3075
8280.5601
8280.2911
8280.0118
8279.8775
8279.8854
8279.97
8280.1598
8280.3734
8280.5979
8280.7726
8280.87
8280.87
8280.7726
8280.5979
8280.3734
8280.1598
8279.97
8279.8854
8279.8775
8280.0118
8280.2911
8280.5601
8281.3075
8281.3132
8282.6402
8281.5764
8285.5771
8286.6741
8285.2947
8285.3078
8284.4974
8284.2125
8283.8798
8283.7012
8283.6476
8283.6675
8283.7886
8283.937
8284.1063
8284.241
8284.3178
8284.3178
8284.241
8284.1063
8283.937
8283.7886
8283.6675
8283.6476
8283.7012
8283.8798
8284.2125
8284.4974
8285.3078
8285.2947
8286.6741
8285.5771
8289.6968
8290.8174
8289.3833
8289.4074
8288.5289
8288.2215
8287.8274
8287.5978
8287.4746
8287.4222
8287.4668
8287.5423
8287.649
8287.7376
8287.7903
8287.7903
8287.7376
8287.649
8287.5423
8287.4668
8287.4222
8287.4746
8287.5978
8287.8274
8288.2215
8288.5289
8289.4074
8289.3833
8290.8174
8289.6968
8293.9353
8295.0742
8293.5794
8293.6063
8292.6544
8292.3172
8291.8538
8291.5667
8291.3675
8291.2364
8291.1979
8291.1949
8291.2337
8291.2721
8291.2985
8291.2985
8291.2721
8291.2337
8291.1949
8291.1979
8291.2364
8291.3675
8291.5667
8291.8538
8292.3172
8292.6544
8293.6063
8293.5794
8295.0742
8293.9353
8298.2903
8299.4424
8297.8836
8297.9047
8296.8735
8296.4987
8295.9582
8295.6075
8295.3268
8295.1127
8294.9863
8294.9008
8294.8686
8294.8544
8294.8531
8294.8531
8294.8544
8294.8686
8294.9008
8294.9863
8295.1127
8295.3268
8295.6075
8295.9582
8296.4987
8296.8735
8297.9047
8297.8836
8299.4424
8298.2903
8302.7599
8303.9157
8302.2956
8302.302
8301.1858
8300.7655
8300.1408
8299.7205
8299.3534
8299.0537
8298.837
8298.6669
8298.5623
8298.4948
8298.4652
8298.4652
8298.4948
8298.5623
8298.6669
8298.837
8299.0537
8299.3534
8299.7205
8300.1408
8300.7655
8301.1858
8302.302
8302.2956
8303.9157
8302.7599
8307.344
8308.4913
8306.8124
8306.7954
8305.5903
8305.1175
8304.4023
8303.9071
8303.4494
8303.0622
8302.755
8302.5002
8302.3234
8302.2031
8302.1456
8302.1456
8302.2031
8302.3234
8302.5002
8302.755
8303.0622
8303.4494
8303.9071
8304.4023
8305.1175
8305.5903
8306.7954
8306.8124
8308.4913
8307.344
8312.0424
8313.1685
8311.4303
8311.3818
8310.0859
8309.5543
8308.7435
8308.169
8307.6175
8307.1421
8306.7454
8306.4084
8306.1611
8305.9899
8305.9057
8305.9057
8305.9899
8306.1611
8306.4084
8306.7454
8307.1421
8307.6175
8308.169
8308.7435
8309.5543
8310.0859
8311.3818
8311.4303
8313.1686
8312.0424
8316.8543
8317.947
8316.1453
8316.0592
8314.6715
8314.0757
8313.1654
8312.5085
8311.8612
8311.2977
8310.8134
8310.3981
8310.0845
8309.8655
8309.7563
8309.7563
8309.8655
8310.0845
8310.3981
8310.8134
8311.2977
8311.8612
8312.5085
8313.1654
8314.0757
8314.6715
8316.0592
8316.1453
8317.947
8316.8543
8321.7772
8322.8288
8320.956
8320.8268
8319.3469
8318.682
8317.67
8316.9286
8316.1849
8315.5343
8314.9651
8314.4761
8314.1015
8313.8388
8313.7068
8313.7068
8313.8388
8314.1015
8314.4761
8314.9651
8315.5343
8316.1849
8316.9286
8317.67
8318.682
8319.3469
8320.8268
8320.956
8322.8288
8321.7772
8326.8065
8327.8159
8325.8628
8325.6847
8324.1122
8323.3746
8322.2597
8321.4329
8320.5935
8319.8582
8319.2077
8318.6499
8318.2197
8317.9181
8317.7659
8317.7659
8317.9181
8318.2197
8318.6499
8319.2077
8319.8582
8320.5935
8321.4329
8322.2597
8323.3746
8324.1122
8325.6847
8325.8628
8327.8159
8326.8065
8331.936
8332.9077
8330.8659
8330.634
8328.9685
8328.1554
8326.9379
8326.0256
8325.0919
8324.2756
8323.5485
8322.9278
8322.4475
8322.1119
8321.9423
8321.9423
8322.1119
8322.4475
8322.9278
8323.5485
8324.2756
8325.0919
8326.0256
8326.9379
8328.1554
8328.9685
8330.634
8330.8659
8332.9077
8331.936
8337.1584
8338.1022
8335.9652
8335.6779
8333.918
8333.0271
8331.7079
8330.711
8329.6858
8328.7932
8327.9955
8327.3179
8326.7934
8326.4287
8326.2443
8326.2443
8326.4287
8326.7934
8327.3179
8327.9955
8328.7932
8329.6858
8330.711
8331.7079
8333.0271
8333.918
8335.6779
8335.9652
8338.1022
8337.1584
8342.4693
8343.3987
8341.1603
8340.8191
8338.9626
8337.9927
8336.5738
8335.4941
8334.3817
8333.4182
8332.5561
8331.8283
8331.2654
8330.8763
8330.6797
8330.6797
8330.8763
8331.2654
8331.8283
8332.5561
8333.4182
8334.3817
8335.4941
8336.5738
8337.9927
8338.9626
8340.8191
8341.1603
8343.3987
8342.4694
8347.8668
8348.7973
8346.4505
8346.0576
8344.1033
8343.0553
8341.5398
8340.3809
8339.1862
8338.1577
8337.2378
8336.4664
8335.8709
8335.4618
8335.2553
8335.2553
8335.4618
8335.8709
8336.4664
8337.2378
8338.1577
8339.1862
8340.3809
8341.5398
8343.0553
8344.1033
8346.0576
8346.4505
8348.7973
8347.8668
8353.3499
8354.2991
8351.8386
8351.3937
8349.3418
8348.2183
8346.6106
8345.3771
8344.1063
8343.019
8342.048
8341.2395
8340.617
8340.1918
8339.9775
8339.9775
8340.1918
8340.617
8341.2395
8342.048
8343.019
8344.1063
8345.3771
8346.6106
8348.2183
8349.3418
8351.3937
8351.8386
8354.2991
8353.3499
8358.9173
8359.9043
8357.3243
8356.8285
8354.6807
8353.4858
8351.7913
8350.4892
8349.1488
8348.0095
8346.994
8346.1546
8345.5102
8345.0725
8344.8523
8344.8523
8345.0725
8345.5102
8346.1546
8346.994
8348.0095
8349.1488
8350.4892
8351.7913
8353.4858
8354.6807
8356.8285
8357.3243
8359.9043
8358.9173
8364.5682
8365.6134
8362.9054
8362.3646
8360.1241
8358.8629
8357.088
8355.7238
8354.3211
8353.1366
8352.083
8351.2187
8350.5571
8350.1098
8349.8854
8349.8854
8350.1098
8350.5571
8351.2187
8352.083
8353.1366
8354.3211
8355.7238
8357.088
8358.8629
8360.1241
8362.3646
8362.9054
8365.6134
8364.5682
8370.3031
8371.4308
8368.5867
8368.0069
8365.677
8364.3552
8362.5068
8361.0876
8359.6303
8358.4074
8357.3221
8356.4383
8355.7637
8355.3096
8355.0823
8355.0823
8355.3096
8355.7637
8356.4383
8357.3221
8358.4074
8359.6303
8361.0876
8362.5068
8364.3552
8365.677
8368.0069
8368.5867
8371.4308
8370.3031
8376.1235
8377.3639
8374.3742
8373.761
8371.3451
8369.969
8368.0541
8366.5877
8365.0836
8363.8293
8362.7184
8361.8199
8361.136
8360.6773
8360.4483
8360.4483
8360.6773
8361.136
8361.8199
8362.7184
8363.8293
8365.0836
8366.5877
8368.0541
8369.969
8371.3451
8373.761
8374.3742
8377.3639
8376.1235
8382.0362
8383.4189
8380.2701
8379.6302
8377.134
8375.7109
8373.737
8372.2314
8370.6884
8369.4094
8368.2786
8367.3698
8366.6797
8366.2183
8365.9886
8365.9886
8366.2183
8366.6797
8367.3698
8368.2786
8369.4094
8370.6884
8372.2314
8373.737
8375.7109
8377.134
8379.6302
8380.2701
8383.4189
8382.0362
8388.0469
8389.6021
8386.2798
8385.6214
8383.0507
8381.5881
8379.5631
8378.0261
8376.4519
8375.1547
8374.0095
8373.0945
8372.4004
8371.938
8371.7084
8371.7084
8371.938
8372.4004
8373.0945
8374.0095
8375.1547
8376.4519
8378.0261
8379.5631
8381.5881
8383.0507
8385.6214
8386.2798
8389.6021
8388.0469
8394.1604
8395.9218
8392.4131
8391.7452
8389.1044
8387.6092
8385.5405
8383.9797
8382.3816
8381.0722
8379.9178
8379.0001
8378.3041
8377.8421
8377.6132
8377.6132
8377.8421
8378.3041
8379.0001
8379.9178
8381.0722
8382.3816
8383.9797
8385.5405
8387.6092
8389.1044
8391.7452
8392.4131
8395.9218
8394.1604
8400.382
8402.3879
8398.6797
8398.0114
8395.3048
8393.7842
8391.679
8390.101
8388.4854
8387.1694
8386.0101
8385.093
8384.3969
8383.9368
8383.7089
8383.7089
8383.9368
8384.3969
8385.093
8386.0101
8387.1694
8388.4854
8390.101
8391.679
8393.7842
8395.3048
8398.0114
8398.6797
8402.3879
8400.382
8406.7191
8409.0053
8405.0881
8404.4288
8401.6615
8400.1233
8397.9892
8396.4002
8394.7729
8393.4552
8392.2948
8391.3806
8390.6862
8390.2289
8390.0025
8390.0025
8390.2289
8390.6862
8391.3806
8392.2948
8393.4552
8394.7729
8396.4002
8397.9893
8400.1233
8401.6615
8404.4288
8405.0881
8409.0053
8406.7191
8413.1821
8415.7815
8411.6474
8411.0066
8408.1846
8406.6369
8404.482
8402.8887
8401.2551
8399.9399
8398.7815
8397.8722
8397.181
8396.7275
8396.5028
8396.5028
8396.7275
8397.181
8397.8722
8398.7815
8399.9399
8401.2551
8402.8887
8404.482
8406.6369
8408.1846
8411.0066
8411.6474
8415.7816
8413.1821
8419.7877
8422.737
8418.3678
8417.7557
8414.8856
8413.3362
8411.1686
8409.5777
8407.9432
8406.6343
8405.4806
8404.5781
8403.8918
8403.4429
8403.2203
8403.2203
8403.4429
8403.8918
8404.5781
8405.4806
8406.6343
8407.9432
8409.5777
8411.1686
8413.3362
8414.8856
8417.7557
8418.3678
8422.737
8419.7877
8426.5437
8429.8976
8425.2678
8424.6939
8421.7802
8420.2354
8418.0616
8416.479
8414.8485
8413.5493
8412.4029
8411.5092
8410.8292
8410.3855
8410.1654
8410.1654
8410.3855
8410.8292
8411.5092
8412.4029
8413.5493
8414.8485
8416.479
8418.0616
8420.2354
8421.7802
8424.6939
8425.2678
8429.8976
8426.5437
8433.4427
8437.2853
8432.3716
8431.8458
8428.8876
8427.3511
8425.1763
8423.6064
8421.9836
8420.6969
8419.5601
8418.6768
8418.0042
8417.5663
8417.3488
8417.3488
8417.5663
8418.0042
8418.6768
8419.5601
8420.6969
8421.9836
8423.6064
8425.1763
8427.3511
8428.8876
8431.8458
8432.3716
8437.2853
8433.4427
8440.4902
8444.9161
8439.6943
8439.2286
8436.2259
8434.7005
8432.5285
8430.974
8429.3616
8428.0891
8426.9634
8426.0914
8425.4267
8424.9948
8424.7802
8424.7802
8424.9948
8425.4267
8426.0914
8426.9634
8428.0892
8429.3616
8430.974
8432.5285
8434.7005
8436.2259
8439.2286
8439.6943
8444.9161
8440.4902
8447.7057
8452.8024
8447.2411
8446.8478
8443.8066
8442.2962
8440.1284
8438.5888
8436.9868
8435.7286
8434.6139
8433.7528
8433.0958
8432.6697
8432.4579
8432.4579
8432.6697
8433.0958
8433.7528
8434.6139
8435.7286
8436.9868
8438.5888
8440.1284
8442.2962
8443.8066
8446.8478
8447.2411
8452.8024
8447.7057
8455.0962
8460.9527
8455.0232
8454.7091
8451.6301
8450.1379
8447.9703
8446.4429
8444.8504
8443.6054
8442.5009
8441.65
8441.0002
8440.5796
8440.3704
8440.3704
8440.5796
8441.0002
8441.65
8442.5009
8443.6054
8444.8504
8446.4429
8447.9703
8450.1379
8451.6301
8454.7092
8455.0232
8460.9527
8455.0962
8462.665
8469.3776
8463.05
8462.8203
8459.6931
8458.2195
8456.0483
8454.5309
8452.9472
8451.7146
8450.6202
8449.7791
8449.1362
8448.721
8448.5144
8448.5144
8448.721
8449.1362
8449.7791
8450.6202
8451.7146
8452.9472
8454.5309
8456.0483
8458.2195
8459.6931
8462.8203
8463.05
8469.3776
8462.665
8470.4241
8478.087
8471.3254
8471.192
8468.0022
8466.5464
8464.37
8462.8619
8461.2859
8460.0645
8458.9795
8458.1478
8457.5116
8457.1016
8456.8978
8456.8978
8457.1016
8457.5116
8458.1478
8458.9795
8460.0645
8461.2859
8462.8619
8464.37
8466.5464
8468.0022
8471.192
8471.3254
8478.087
8470.4241
8478.3903
8487.0878
8479.8606
8479.8393
8476.5746
8475.1352
8472.9509
8471.4495
8469.8788
8468.6664
8467.5895
8466.766
8466.1359
8465.7308
8465.5295
8465.5295
8465.7308
8466.1359
8466.766
8467.5895
8468.6664
8469.8788
8471.4495
8472.9509
8475.1352
8476.5746
8479.8393
8479.8606
8487.0878
8478.3903
8486.5861
8496.3803
8488.6722
8488.7814
8485.4301
8484.0041
8481.8044
8480.3033
8478.7336
8477.527
8476.456
8475.6388
8475.0137
8474.6128
8474.4138
8474.4138
8474.6128
8475.0137
8475.6388
8476.456
8477.527
8478.7336
8480.3034
8481.8044
8484.0041
8485.4301
8488.7814
8488.6722
8496.3803
8486.5861
8495.0302
8505.962
8497.7751
8498.0365
8494.5878
8493.1679
8490.9371
8489.4248
8487.85
8486.645
8485.577
8484.764
8484.1423
8483.7448
8483.5477
8483.5477
8483.7448
8484.1423
8484.764
8485.577
8486.645
8487.85
8489.4248
8490.9371
8493.1679
8494.5878
8498.0365
8497.7751
8505.962
8495.0302
8503.7189
8515.8356
8507.1862
8507.6168
8504.0637
8502.6399
8500.3634
8498.8358
8497.2518
8496.0441
8494.9762
8494.1647
8493.545
8493.1499
8492.9543
8492.9543
8493.1499
8493.545
8494.1647
8494.9762
8496.0441
8497.2518
8498.8358
8500.3634
8502.6399
8504.0637
8507.6168
8507.1862
8515.8356
8503.7189
8512.6533
8526.0038
8516.9217
8517.5301
8513.8676
8512.4307
8510.1111
8508.5721
8506.9764
8505.762
8504.6906
8503.8782
8503.2587
8502.8649
8502.6703
8502.6703
8502.8649
8503.2587
8503.8782
8504.6906
8505.762
8506.9764
8508.5721
8510.1111
8512.4307
8513.8676
8517.5301
8516.9218
8526.0038
8512.6533
8521.8559
8536.4801
8526.9963
8527.7845
8524.009
8522.5455
8520.1978
8518.6463
8517.0349
8515.8097
8514.7313
8513.9147
8513.2931
8512.8993
8512.7051
8512.7051
8512.8993
8513.2931
8513.9147
8514.7313
8515.8097
8517.0349
8518.6463
8520.1978
8522.5455
8524.009
8527.7845
8526.9963
8536.4801
8521.8559
8531.3638
8547.2727
8537.4283
8538.391
8534.4997
8532.9993
8530.6298
8529.0595
8527.4282
8526.188
8525.099
8524.2748
8523.6489
8523.2533
8523.0588
8523.0588
8523.2533
8523.6489
8524.2748
8525.099
8526.188
8527.4282
8529.0595
8530.6298
8532.9993
8534.4997
8538.391
8537.4283
8547.2727
8531.3638
8541.2165
8558.3644
8548.2333
8549.3759
8545.3502
8543.8088
8541.4119
8539.8141
8538.159
8536.8995
8535.7962
8534.9611
8534.3284
8533.9296
8533.7339
8533.7339
8533.9296
8534.3284
8534.9611
8535.7962
8536.8995
8538.159
8539.8141
8541.4119
8543.8088
8545.3502
8549.3759
8548.2333
8558.3644
8541.2165
8551.446
8569.7327
8559.4146
8560.7431
8556.5654
8554.9814
8552.5484
8550.9151
8549.2323
8547.9492
8546.8278
8545.9787
8545.3368
8544.9332
8544.7357
8544.7357
8544.9332
8545.3368
8545.9787
8546.8278
8547.9492
8549.2323
8550.9151
8552.5484
8554.9814
8556.5654
8560.7431
8559.4146
8569.7327
8551.446
8562.0784
8581.361
8570.9654
8572.4604
8568.1516
8566.5321
8564.0491
8562.372
8560.6575
8559.346
8558.203
8557.3365
8556.683
8556.2728
8556.0728
8556.0728
8556.2728
8556.683
8557.3365
8558.203
8559.346
8560.6575
8562.3721
8564.0491
8566.5321
8568.1516
8572.4604
8570.9654
8581.3611
8562.0784
8573.134
8593.243
8582.8891
8584.5154
8580.1191
8578.4748
8575.9374
8574.2117
8572.4599
8571.1138
8569.9441
8569.0559
8568.3876
8567.9689
8567.7652
8567.7652
8567.9689
8568.3876
8569.0559
8569.9441
8571.1138
8572.4599
8574.2117
8575.9374
8578.4748
8580.1192
8584.5154
8582.8891
8593.243
8573.134
8584.6378
8605.3719
8595.1977
8596.9224
8592.4785
8590.8169
8588.2289
8586.4554
8584.6641
8583.2793
8582.079
8581.1654
8580.4796
8580.0505
8579.8424
8579.8424
8580.0505
8580.4796
8581.1654
8582.079
8583.2793
8584.6641
8586.4554
8588.2289
8590.8169
8592.4785
8596.9224
8595.1977
8605.3719
8584.6378
8596.6051
8617.7434
8607.9017
8609.6942
8605.2382
8603.5621
8600.93
8599.1115
8597.2816
8595.8569
8594.6246
8593.6836
8592.9786
8592.538
8592.3249
8592.3249
8592.538
8592.9786
8593.6836
8594.6246
8595.8569
8597.2816
8599.1115
8600.9301
8603.5621
8605.2382
8609.6942
8607.9017
8617.7434
8596.6051
8609.0428
8630.3794
8621.0118
8622.8377
8618.4052
8616.7145
8614.0447
8612.1845
8610.3177
8608.8535
8607.5888
8606.6195
8605.8944
8605.4417
8605.2232
8605.2232
8605.4417
8605.8944
8606.6195
8607.5888
8608.8535
8610.3177
8612.1845
8614.0447
8616.7145
8618.4052
8622.8377
8621.0118
8630.3794
8609.0428
8621.958
8643.3507
8634.5411
8636.3522
8631.9839
8630.2785
8627.5786
8625.6799
8623.7786
8622.2759
8620.9792
8619.9811
8619.2355
8618.7703
8618.5465
8618.5465
8618.7703
8619.2355
8619.9811
8620.9792
8622.2759
8623.7786
8625.6799
8627.5786
8630.2785
8631.9839
8636.3522
8634.5412
8643.3507
8621.958
8635.3614
8656.704
8648.4942
8650.241
8645.9798
8644.26
8641.5388
8639.6053
8637.6726
8636.1329
8634.8051
8633.7785
8633.0125
8632.5349
8632.3057
8632.3057
8632.5349
8633.0125
8633.7785
8634.8051
8636.1329
8637.6726
8639.6053
8641.5388
8644.26
8645.9798
8650.241
8648.4942
8656.704
8635.3614
8649.2532
8670.427
8662.8662
8664.5179
8660.4003
8658.6657
8655.9322
8653.9683
8652.0082
8650.4342
8649.077
8648.0228
8647.2372
8646.7477
8646.5135
8646.5135
8646.7477
8647.2372
8648.0228
8649.077
8650.4342
8652.0082
8653.9683
8655.9323
8658.6658
8660.4003
8664.5179
8662.8662
8670.427
8649.2532
8663.6397
8684.4895
8677.6335
8679.1953
8675.2567
8673.5032
8670.7663
8668.7765
8666.7939
8665.1892
8663.8054
8662.7255
8661.9214
8661.4211
8661.1823
8661.1823
8661.4211
8661.9214
8662.7255
8663.8054
8665.1892
8666.7939
8668.7765
8670.7663
8673.5033
8675.2568
8679.1953
8677.6336
8684.4895
8663.6397
8678.5246
8698.8794
8692.7856
8694.2856
8690.55
8688.7778
8686.048
8684.0374
8682.0381
8680.4072
8679.0004
8677.8974
8677.077
8676.5673
8676.3248
8676.3248
8676.5673
8677.077
8677.8974
8679.0004
8680.4072
8682.0381
8684.0374
8686.048
8688.7778
8690.55
8694.2856
8692.7856
8698.8795
8678.5246
8693.8975
8713.6448
8708.3229
8709.793
8706.279
8704.4942
8701.7834
8699.7579
8697.7488
8696.0972
8694.6719
8693.5493
8692.7153
8692.1983
8691.9531
8691.9531
8692.1983
8692.7153
8693.5493
8694.6719
8696.0972
8697.7488
8699.7579
8701.7834
8704.4942
8706.279
8709.793
8708.3229
8713.6449
8693.8975
8709.7524
8728.8324
8724.2078
8725.7214
8722.4458
8720.6577
8717.9777
8715.9444
8713.9333
8712.2676
8710.8292
8709.6915
8708.8472
8708.3254
8708.079
8708.079
8708.3254
8708.8472
8709.6915
8710.8292
8712.2676
8713.9333
8715.9444
8717.9777
8720.6577
8722.4458
8725.7215
8724.2078
8728.8324
8709.7524
8726.0777
8744.471
8740.4638
8742.0882
8739.0551
8737.2735
8734.6359
8732.6027
8730.5983
8728.9259
8727.4807
8726.333
8725.4826
8724.959
8724.7129
8724.7129
8724.959
8725.4826
8726.333
8727.4807
8728.9259
8730.5983
8732.6027
8734.6359
8737.2736
8739.0551
8742.0882
8740.4638
8744.471
8726.0777
8742.8292
8760.5784
8757.1665
8758.9147
8756.1129
8754.3464
8751.7627
8749.7382
8747.7497
8746.0787
8744.6338
8743.4819
8742.63
8742.108
8741.8641
8741.8641
8742.108
8742.63
8743.4819
8744.6338
8746.0787
8747.7497
8749.7382
8751.7627
8754.3465
8756.1129
8758.9147
8757.1665
8760.5784
8742.8292
8759.9929
8777.1491
8774.3221
8776.2017
8773.6218
8771.8831
8769.3634
8767.3565
8765.3933
8763.7323
8762.2951
8761.1455
8760.2972
8759.7807
8759.5409
8759.5409
8759.7807
8760.2972
8761.1455
8762.2951
8763.7323
8765.3933
8767.3565
8769.3634
8771.8831
8773.6219
8776.2017
8774.3221
8777.1491
8759.9929
8777.625
8794.1972