/*--------------------------------*- C++ -*----------------------------------*\
  =========                 |
  \\      /  F ield         | OpenFOAM: The Open Source CFD Toolbox
   \\    /   O peration     | Website:  https://openfoam.org
    \\  /    A nd           | Version:  8
     \\/     M anipulation  |
\*---------------------------------------------------------------------------*/
/*   Windows 32 and 64 bit porting by blueCAPE: http://www.bluecape.com.pt   *\
|  Based on Windows porting (2.0.x v4) by Symscape: http://www.symscape.com   |
\*---------------------------------------------------------------------------*/
FoamFile
{
    version     2.0;
    format      ascii;
    class       volScalarField;
    location    "60";
    object      p_rgh;
}
// * * * * * * * * * * * * * * * * * * * * * * * * * * * * * * * * * * * * * //

dimensions      [1 -1 -2 0 0 0 0];

internalField   nonuniform List<scalar> 
283500
(
9840.0535
9831.0711
9828.1794
9826.2064
9825.0353
9824.2796
9823.7803
9823.4428
9823.2115
9823.0515
9822.9408
9822.865
9822.8147
9822.7841
9822.7696
9822.7696
9822.7841
9822.8147
9822.865
9822.9408
9823.0515
9823.2115
9823.4428
9823.7803
9824.2796
9825.0353
9826.2064
9828.1794
9831.0711
9840.0535
9825.2469
9821.4274
9819.9143
9818.2346
9817.1742
9816.4375
9815.9338
9815.5853
9815.3428
9815.1734
9815.0553
9814.974
9814.9199
9814.8868
9814.8712
9814.8712
9814.8868
9814.9199
9814.974
9815.0553
9815.1734
9815.3428
9815.5853
9815.9338
9816.4375
9817.1742
9818.2346
9819.9143
9821.4274
9825.2469
9817.7834
9816.0537
9815.2862
9813.8846
9812.9679
9812.2474
9811.7256
9811.349
9811.0792
9810.8869
9810.7507
9810.656
9810.5925
9810.5535
9810.535
9810.535
9810.5535
9810.5925
9810.656
9810.7507
9810.8869
9811.0792
9811.349
9811.7256
9812.2474
9812.9679
9813.8846
9815.2862
9816.0537
9817.7834
9817.3943
9815.8499
9815.0113
9813.6345
9812.7385
9811.9713
9811.3979
9810.9697
9810.6546
9810.4245
9810.2589
9810.1423
9810.0633
9810.0145
9809.9912
9809.9912
9810.0145
9810.0633
9810.1423
9810.2589
9810.4245
9810.6546
9810.9697
9811.3979
9811.9713
9812.7385
9813.6345
9815.0113
9815.8499
9817.3943
9819.2655
9817.6648
9816.6207
9815.1341
9814.1461
9813.2672
9812.6041
9812.0972
9811.7174
9811.4362
9811.2309
9811.0842
9810.984
9810.9217
9810.8919
9810.8919
9810.9217
9810.984
9811.0842
9811.2309
9811.4362
9811.7174
9812.0972
9812.6041
9813.2672
9814.1461
9815.1341
9816.6207
9817.6648
9819.2655
9821.3377
9819.8145
9818.6901
9817.103
9815.9999
9814.9902
9814.2185
9813.6141
9813.1541
9812.8086
9812.5534
9812.3695
9812.243
9812.1639
9812.1259
9812.1259
9812.1639
9812.243
9812.3695
9812.5534
9812.8086
9813.1541
9813.6141
9814.2185
9814.9902
9815.9999
9817.103
9818.6901
9819.8145
9821.3377
9823.4473
9822.0555
9820.9304
9819.2814
9818.0831
9816.9504
9816.0678
9815.3592
9814.8109
9814.3929
9814.0804
9813.8532
9813.6958
9813.5968
9813.549
9813.549
9813.5968
9813.6958
9813.8532
9814.0804
9814.3929
9814.8109
9815.3592
9816.0678
9816.9504
9818.0831
9819.2814
9820.9304
9822.0555
9823.4473
9825.704
9824.4509
9823.3568
9821.6747
9820.4051
9819.161
9818.1697
9817.3538
9816.7121
9816.215
9815.8389
9815.5627
9815.37
9815.2482
9815.1892
9815.1892
9815.2482
9815.37
9815.5627
9815.8389
9816.215
9816.7121
9817.3538
9818.1697
9819.161
9820.4051
9821.6747
9823.3568
9824.4509
9825.704
9828.0632
9826.9616
9825.9241
9824.2391
9822.9233
9821.5828
9820.489
9819.5657
9818.827
9818.2454
9817.7999
9817.4694
9817.237
9817.0894
9817.0177
9817.0177
9817.0894
9817.237
9817.4694
9817.7999
9818.2454
9818.827
9819.5657
9820.489
9821.5828
9822.9233
9824.2391
9825.9241
9826.9616
9828.0632
9830.4362
9829.5004
9828.5436
9826.8922
9825.5623
9824.1474
9822.9639
9821.9376
9821.1016
9820.4324
9819.913
9819.5235
9819.2476
9819.0714
9818.9854
9818.9854
9819.0714
9819.2476
9819.5235
9819.913
9820.4324
9821.1016
9821.9376
9822.9639
9824.1474
9825.5623
9826.8922
9828.5436
9829.5004
9830.4362
9832.7787
9832.0117
9831.1515
9829.5693
9828.2597
9826.7986
9825.5447
9824.4257
9823.4965
9822.7394
9822.1438
9821.6923
9821.3697
9821.1625
9821.0611
9821.0611
9821.1625
9821.3697
9821.6923
9822.1438
9822.7394
9823.4965
9824.4257
9825.5447
9826.7986
9828.2597
9829.5693
9831.1515
9832.0117
9832.7787
9835.0877
9834.4763
9833.7195
9832.2355
9830.9775
9829.5006
9828.1998
9827.0034
9825.9895
9825.1477
9824.4761
9823.9609
9823.5897
9823.3499
9823.232
9823.232
9823.3499
9823.5897
9823.9609
9824.4761
9825.1477
9825.9895
9827.0034
9828.1998
9829.5006
9830.9775
9832.2355
9833.7195
9834.4763
9835.0877
9837.375
9836.8963
9836.2384
9834.873
9833.693
9832.2297
9830.9083
9829.6533
9828.5671
9827.6472
9826.9023
9826.3239
9825.9033
9825.63
9825.4952
9825.4952
9825.63
9825.9033
9826.3239
9826.9023
9827.6472
9828.5671
9829.6533
9830.9083
9832.2297
9833.693
9834.873
9836.2384
9836.8963
9837.375
9839.6541
9839.2808
9838.7079
9837.4727
9836.3904
9834.9681
9833.6528
9832.3612
9831.2187
9830.2306
9829.418
9828.7789
9828.3098
9828.003
9827.8511
9827.8511
9828.003
9828.3098
9828.7789
9829.418
9830.2306
9831.2187
9832.3612
9833.6528
9834.9681
9836.3904
9837.4727
9838.7079
9839.2808
9839.6541
9841.9365
9841.6404
9841.1347
9840.0321
9839.0592
9837.7013
9836.4185
9835.1141
9833.9342
9832.8912
9832.0194
9831.3246
9830.8095
9830.4702
9830.3017
9830.3017
9830.4702
9830.8095
9831.3246
9832.0194
9832.8912
9833.9342
9835.1141
9836.4185
9837.7013
9839.0592
9840.0321
9841.1347
9841.6404
9841.9365
9844.2333
9843.9867
9843.5293
9842.5533
9841.6936
9840.419
9839.1929
9837.9001
9836.704
9835.6222
9834.7027
9833.9595
9833.4029
9833.0336
9832.8495
9832.8495
9833.0336
9833.4029
9833.9595
9834.7027
9835.6222
9836.704
9837.9001
9839.1929
9840.419
9841.6936
9842.5533
9843.5293
9843.9867
9844.2333
9846.555
9846.3323
9845.9036
9845.0418
9844.2924
9843.1153
9841.9666
9840.7086
9839.5185
9838.4164
9837.4635
9836.6818
9836.0901
9835.6946
9835.4966
9835.4966
9835.6946
9836.0901
9836.6818
9837.4635
9838.4164
9839.5185
9840.7086
9841.9666
9843.1153
9844.2924
9845.0418
9845.9036
9846.3323
9846.555
9848.9081
9848.6883
9848.2698
9847.5058
9846.8584
9845.7871
9844.7319
9843.5299
9842.3684
9841.2664
9840.2965
9839.4885
9838.8702
9838.4537
9838.2443
9838.2443
9838.4537
9838.8702
9839.4885
9840.2965
9841.2664
9842.3684
9843.5299
9844.7319
9845.7871
9846.8584
9847.5058
9848.2698
9848.6883
9848.9081
9851.2942
9851.0641
9850.6395
9849.9549
9849.397
9848.4337
9847.4834
9846.356
9845.2449
9844.1638
9843.1951
9842.3752
9841.7406
9841.3096
9841.0921
9841.0921
9841.3096
9841.7406
9842.3752
9843.1951
9844.1638
9845.2449
9846.356
9847.4834
9848.4337
9849.397
9849.955
9850.6395
9851.0641
9851.2942
9853.7112
9853.4666
9853.0234
9852.3995
9851.9155
9851.0574
9850.2183
9849.1809
9848.14
9847.1006
9846.1523
9845.3364
9844.6973
9844.2598
9844.0379
9844.0379
9844.2598
9844.6973
9845.3364
9846.1523
9847.1006
9848.14
9849.1809
9850.2183
9851.0574
9851.9155
9852.3995
9853.0234
9853.4666
9853.7112
9856.1567
9855.9017
9855.431
9854.8505
9854.4237
9853.6639
9852.9373
9852.0014
9851.048
9850.0698
9849.1612
9848.3662
9847.7358
9847.3005
9847.0787
9847.0787
9847.3005
9847.7358
9848.3662
9849.1612
9850.0698
9851.048
9852.0014
9852.9373
9853.6639
9854.4237
9854.8505
9855.431
9855.9017
9856.1567
9858.6302
9858.3742
9857.871
9857.319
9856.933
9856.2617
9855.6442
9854.8173
9853.9652
9853.0658
9852.2157
9851.4585
9850.8507
9850.4272
9850.2105
9850.2105
9850.4272
9850.8507
9851.4585
9852.2157
9853.0658
9853.9652
9854.8173
9855.6442
9856.2617
9856.933
9857.319
9857.871
9858.3742
9858.6302
9861.1318
9860.8874
9860.3499
9859.8157
9859.4551
9858.8606
9858.3452
9857.6301
9856.8898
9856.0842
9855.3098
9854.6072
9854.0359
9853.6341
9853.4275
9853.4275
9853.6341
9854.0359
9854.6072
9855.3098
9856.0842
9856.8898
9857.6301
9858.3452
9858.8606
9859.4551
9859.8157
9860.3499
9860.8874
9861.1318
9863.6618
9863.4438
9862.8725
9862.3496
9862.0012
9861.471
9861.0477
9860.4433
9859.8212
9859.1214
9858.4378
9857.8051
9857.284
9856.9138
9856.7225
9856.7225
9856.9138
9857.284
9857.8051
9858.4378
9859.1214
9859.8212
9860.4433
9861.0477
9861.471
9862.0012
9862.3496
9862.8725
9863.4438
9863.6618
9866.2204
9866.0452
9865.4425
9864.9279
9864.5815
9864.1035
9863.7605
9863.262
9862.7601
9862.1749
9861.5944
9861.0452
9860.5867
9860.2575
9860.0865
9860.0865
9860.2575
9860.5867
9861.0452
9861.5944
9862.1749
9862.7601
9863.262
9863.7605
9864.1035
9864.5815
9864.9279
9865.4425
9866.0452
9866.2204
9868.813
9868.6952
9868.0628
9867.5572
9867.205
9866.7684
9866.493
9866.0924
9865.7088
9865.2431
9864.7749
9864.3201
9863.935
9863.655
9863.5088
9863.5088
9863.655
9863.935
9864.3201
9864.7749
9865.2431
9865.7088
9866.0924
9866.493
9866.7684
9867.205
9867.5572
9868.0628
9868.6952
9868.813
9871.4487
9871.3983
9870.7376
9870.2433
9869.8798
9869.4754
9869.2552
9868.9423
9868.6711
9868.3256
9867.9752
9867.6227
9867.3195
9867.0954
9866.9776
9866.9776
9867.0954
9867.3195
9867.6227
9867.9752
9868.3256
9868.6711
9868.9423
9869.2552
9869.4754
9869.8798
9870.2433
9870.7376
9871.3983
9871.4487
9874.1335
9874.1591
9873.471
9872.9924
9872.6145
9872.2345
9872.0574
9871.8208
9871.6528
9871.4239
9871.1926
9870.947
9870.731
9870.5678
9870.481
9870.481
9870.5678
9870.731
9870.947
9871.1926
9871.4239
9871.6528
9871.8208
9872.0574
9872.2345
9872.6145
9872.9924
9873.471
9874.1591
9874.1335
9876.8756
9876.9843
9876.2681
9875.811
9875.4168
9875.0557
9874.9107
9874.7385
9874.6621
9874.5422
9874.4272
9874.2892
9874.163
9874.063
9874.0088
9874.0088
9874.063
9874.163
9874.2892
9874.4272
9874.5422
9874.6621
9874.7385
9874.9107
9875.0557
9875.4169
9875.811
9876.2681
9876.9843
9876.8756
9879.6841
9879.8813
9879.1336
9878.7038
9878.293
9877.947
9877.8248
9877.7055
9877.708
9877.6865
9877.681
9877.6476
9877.6102
9877.5738
9877.5525
9877.5525
9877.5738
9877.6102
9877.6476
9877.681
9877.6865
9877.708
9877.7055
9877.8248
9877.947
9878.293
9878.7038
9879.1336
9879.8813
9879.6841
9882.5669
9882.8549
9882.0709
9881.6741
9881.2467
9880.9139
9880.8062
9880.7288
9880.7967
9880.861
9880.9549
9881.0192
9881.0669
9881.0923
9881.1032
9881.1032
9881.0923
9881.067
9881.0192
9880.9549
9880.861
9880.7967
9880.7288
9880.8062
9880.9139
9881.2467
9881.6741
9882.0709
9882.8549
9882.5669
9885.5307
9885.9091
9885.083
9884.725
9884.281
9883.9603
9883.8599
9883.8135
9883.9328
9884.0683
9884.2483
9884.4004
9884.5267
9884.6098
9884.6509
9884.6509
9884.6098
9884.5267
9884.4004
9884.2483
9884.0683
9883.9328
9883.8135
9883.8599
9883.9603
9884.281
9884.725
9885.083
9885.9091
9885.5307
9888.5811
9889.0485
9888.1746
9887.86
9887.3986
9887.0896
9886.9905
9886.9649
9887.121
9887.3118
9887.5623
9887.7889
9887.9842
9888.1187
9888.187
9888.187
9888.1187
9887.9842
9887.7889
9887.5623
9887.3118
9887.121
9886.9649
9886.9905
9887.0896
9887.3986
9887.86
9888.1746
9889.0485
9888.5811
9891.7224
9892.2774
9891.3512
9891.0827
9890.6019
9890.3047
9890.2017
9890.1878
9890.3665
9890.5958
9890.8992
9891.1846
9891.4364
9891.6143
9891.7057
9891.7057
9891.6143
9891.4364
9891.1846
9890.8992
9890.5958
9890.3665
9890.1878
9890.2017
9890.3047
9890.6019
9891.0827
9891.3512
9892.2774
9891.7224
9894.9584
9895.5998
9894.6178
9894.3963
9893.8931
9893.6075
9893.496
9893.4857
9893.6733
9893.9246
9894.2621
9894.5888
9894.8827
9895.0942
9895.2035
9895.2035
9895.0942
9894.8828
9894.5888
9894.2621
9893.9246
9893.6733
9893.4857
9893.496
9893.6075
9893.8931
9894.3963
9894.6178
9895.5998
9894.9584
9898.2923
9899.0191
9897.9792
9897.8034
9897.2739
9896.9994
9896.8748
9896.8608
9897.0448
9897.3016
9897.6545
9898.0039
9898.3243
9898.558
9898.68
9898.68
9898.558
9898.3243
9898.0039
9897.6546
9897.3016
9897.0448
9896.8608
9896.8748
9896.9994
9897.2739
9897.8034
9897.9792
9899.0191
9898.2923
9901.7283
9902.5382
9901.4395
9901.3064
9900.7459
9900.4808
9900.3383
9900.3137
9900.4824
9900.7293
9901.0794
9901.4332
9901.7637
9902.0079
9902.1369
9902.1369
9902.0079
9901.7637
9901.4332
9901.0794
9900.7293
9900.4824
9900.3137
9900.3383
9900.4808
9900.7459
9901.3064
9901.4395
9902.5382
9901.7283
9905.272
9906.1593
9905.0014
9904.9072
9904.31
9904.0512
9903.8851
9903.8434
9903.9859
9904.2091
9904.5397
9904.8804
9905.2051
9905.4482
9905.5781
9905.5781
9905.4482
9905.2051
9904.8804
9904.5397
9904.2091
9903.9859
9903.8434
9903.8851
9904.0512
9904.31
9904.9072
9905.0014
9906.1593
9905.272
9908.9262
9909.8834
9908.6672
9908.6073
9907.9668
9907.71
9907.5138
9907.448
9907.5544
9907.7419
9908.0381
9908.3499
9908.654
9908.8844
9909.0091
9909.0091
9908.8844
9908.654
9908.3499
9908.0381
9907.7419
9907.5544
9907.448
9907.5138
9907.71
9907.9668
9908.6073
9908.6672
9909.8834
9908.9262
9912.6933
9913.7105
9912.4376
9912.4073
9911.7166
9911.4568
9911.223
9911.1263
9911.1877
9911.3285
9911.5773
9911.846
9912.1161
9912.3232
9912.437
9912.437
9912.3232
9912.1161
9911.846
9911.5773
9911.3285
9911.1877
9911.1263
9911.223
9911.4568
9911.7166
9912.4073
9912.4376
9913.7105
9912.6933
9916.5764
9917.6402
9916.3132
9916.3075
9915.5601
9915.2911
9915.0117
9914.8775
9914.8854
9914.97
9915.1598
9915.3734
9915.5978
9915.7726
9915.87
9915.87
9915.7726
9915.5978
9915.3734
9915.1598
9914.97
9914.8854
9914.8775
9915.0117
9915.2911
9915.5601
9916.3075
9916.3132
9917.6402
9916.5764
9920.5771
9921.6741
9920.2947
9920.3077
9919.4974
9919.2125
9918.8798
9918.7012
9918.6476
9918.6675
9918.7886
9918.937
9919.1063
9919.241
9919.3177
9919.3177
9919.241
9919.1063
9918.937
9918.7886
9918.6675
9918.6476
9918.7012
9918.8798
9919.2125
9919.4974
9920.3077
9920.2947
9921.6741
9920.5771
9924.6968
9925.8174
9924.3833
9924.4074
9923.5289
9923.2215
9922.8274
9922.5978
9922.4746
9922.4222
9922.4667
9922.5423
9922.649
9922.7376
9922.7903
9922.7903
9922.7376
9922.649
9922.5423
9922.4667
9922.4222
9922.4746
9922.5978
9922.8274
9923.2215
9923.5289
9924.4074
9924.3833
9925.8174
9924.6968
9928.9353
9930.0742
9928.5794
9928.6063
9927.6544
9927.3172
9926.8537
9926.5667
9926.3675
9926.2364
9926.1979
9926.1948
9926.2337
9926.2721
9926.2984
9926.2984
9926.2721
9926.2337
9926.1948
9926.1979
9926.2364
9926.3675
9926.5667
9926.8537
9927.3172
9927.6544
9928.6063
9928.5794
9930.0742
9928.9353
9933.2903
9934.4424
9932.8836
9932.9047
9931.8735
9931.4986
9930.9581
9930.6075
9930.3268
9930.1127
9929.9863
9929.9008
9929.8686
9929.8544
9929.8531
9929.8531
9929.8544
9929.8686
9929.9008
9929.9863
9930.1127
9930.3268
9930.6075
9930.9581
9931.4986
9931.8735
9932.9047
9932.8836
9934.4424
9933.2903
9937.7599
9938.9157
9937.2956
9937.302
9936.1858
9935.7654
9935.1408
9934.7205
9934.3534
9934.0536
9933.837
9933.6668
9933.5623
9933.4947
9933.4651
9933.4651
9933.4947
9933.5623
9933.6668
9933.837
9934.0536
9934.3534
9934.7205
9935.1408
9935.7654
9936.1858
9937.302
9937.2956
9938.9157
9937.7599
9942.344
9943.4913
9941.8124
9941.7953
9940.5903
9940.1175
9939.4023
9938.9071
9938.4493
9938.0622
9937.755
9937.5002
9937.3234
9937.2031
9937.1456
9937.1456
9937.2031
9937.3234
9937.5002
9937.755
9938.0622
9938.4493
9938.9071
9939.4023
9940.1175
9940.5903
9941.7953
9941.8124
9943.4913
9942.344
9947.0424
9948.1685
9946.4303
9946.3818
9945.0859
9944.5543
9943.7434
9943.169
9942.6175
9942.1421
9941.7454
9941.4083
9941.1611
9940.9899
9940.9057
9940.9057
9940.9899
9941.1611
9941.4083
9941.7454
9942.1421
9942.6175
9943.169
9943.7434
9944.5543
9945.0859
9946.3818
9946.4303
9948.1685
9947.0424
9951.8543
9952.947
9951.1453
9951.0592
9949.6715
9949.0756
9948.1654
9947.5085
9946.8612
9946.2977
9945.8134
9945.398
9945.0845
9944.8655
9944.7563
9944.7563
9944.8655
9945.0845
9945.398
9945.8134
9946.2977
9946.8612
9947.5085
9948.1654
9949.0756
9949.6715
9951.0592
9951.1453
9952.947
9951.8543
9956.7772
9957.8287
9955.9559
9955.8267
9954.3468
9953.682
9952.67
9951.9285
9951.1849
9950.5343
9949.9651
9949.4761
9949.1014
9948.8388
9948.7068
9948.7068
9948.8388
9949.1014
9949.4761
9949.9651
9950.5343
9951.1849
9951.9285
9952.67
9953.682
9954.3468
9955.8267
9955.9559
9957.8288
9956.7772
9961.8065
9962.8159
9960.8628
9960.6847
9959.1121
9958.3746
9957.2597
9956.4329
9955.5935
9954.8582
9954.2076
9953.6499
9953.2197
9952.9181
9952.7659
9952.7659
9952.9181
9953.2197
9953.6499
9954.2077
9954.8582
9955.5935
9956.4329
9957.2597
9958.3746
9959.1121
9960.6847
9960.8628
9962.8159
9961.8065
9966.936
9967.9077
9965.8659
9965.634
9963.9685
9963.1554
9961.9379
9961.0256
9960.0919
9959.2755
9958.5485
9957.9277
9957.4475
9957.1119
9956.9422
9956.9422
9957.1119
9957.4475
9957.9277
9958.5485
9959.2755
9960.0919
9961.0256
9961.9379
9963.1554
9963.9685
9965.634
9965.8659
9967.9077
9966.936
9972.1584
9973.1022
9970.9652
9970.6779
9968.918
9968.0271
9966.7079
9965.7109
9964.6858
9963.7932
9962.9955
9962.3179
9961.7934
9961.4287
9961.2443
9961.2443
9961.4287
9961.7934
9962.3179
9962.9955
9963.7932
9964.6858
9965.7109
9966.7079
9968.0271
9968.918
9970.6779
9970.9652
9973.1022
9972.1584
9977.4693
9978.3987
9976.1603
9975.8191
9973.9626
9972.9927
9971.5738
9970.4941
9969.3817
9968.4182
9967.556
9966.8283
9966.2654
9965.8763
9965.6797
9965.6797
9965.8763
9966.2654
9966.8283
9967.5561
9968.4182
9969.3817
9970.4941
9971.5738
9972.9927
9973.9626
9975.8191
9976.1603
9978.3987
9977.4693
9982.8668
9983.7973
9981.4505
9981.0576
9979.1033
9978.0553
9976.5398
9975.3809
9974.1862
9973.1577
9972.2378
9971.4664
9970.8709
9970.4618
9970.2553
9970.2553
9970.4618
9970.8709
9971.4664
9972.2378
9973.1577
9974.1862
9975.3809
9976.5398
9978.0553
9979.1033
9981.0576
9981.4505
9983.7973
9982.8668
9988.3498
9989.2991
9986.8386
9986.3937
9984.3417
9983.2183
9981.6105
9980.3771
9979.1062
9978.019
9977.048
9976.2395
9975.617
9975.1918
9974.9775
9974.9775
9975.1918
9975.617
9976.2395
9977.048
9978.019
9979.1062
9980.3771
9981.6105
9983.2183
9984.3417
9986.3937
9986.8386
9989.2991
9988.3498
9993.9173
9994.9043
9992.3243
9991.8285
9989.6807
9988.4858
9986.7913
9985.4892
9984.1488
9983.0095
9981.9939
9981.1546
9980.5102
9980.0725
9979.8523
9979.8523
9980.0725
9980.5102
9981.1546
9981.9939
9983.0095
9984.1488
9985.4892
9986.7913
9988.4858
9989.6807
9991.8285
9992.3243
9994.9043
9993.9173
9999.5682
10000.613
9997.9054
9997.3646
9995.1241
9993.8629
9992.088
9990.7237
9989.3211
9988.1365
9987.083
9986.2187
9985.5571
9985.1098
9984.8854
9984.8854
9985.1098
9985.5571
9986.2187
9987.083
9988.1365
9989.3211
9990.7238
9992.088
9993.8629
9995.1241
9997.3646
9997.9054
10000.613
9999.5682
10005.303
10006.431
10003.587
10003.007
10000.677
9999.3552
9997.5067
9996.0876
9994.6303
9993.4074
9992.3221
9991.4383
9990.7637
9990.3096
9990.0823
9990.0823
9990.3096
9990.7637
9991.4383
9992.3221
9993.4074
9994.6303
9996.0876
9997.5067
9999.3552
10000.677
10003.007
10003.587
10006.431
10005.303
10011.123
10012.364
10009.374
10008.761
10006.345
10004.969
10003.054
10001.588
10000.084
9998.8293
9997.7184
9996.8198
9996.1359
9995.6772
9995.4483
9995.4483
9995.6772
9996.1359
9996.8198
9997.7184
9998.8293
10000.084
10001.588
10003.054
10004.969
10006.345
10008.761
10009.374
10012.364
10011.123
10017.036
10018.419
10015.27
10014.63
10012.134
10010.711
10008.737
10007.231
10005.688
10004.409
10003.279
10002.37
10001.68
10001.218
10000.989
10000.989
10001.218
10001.68
10002.37
10003.279
10004.409
10005.688
10007.231
10008.737
10010.711
10012.134
10014.63
10015.27
10018.419
10017.036
10023.047
10024.602
10021.28
10020.621
10018.051
10016.588
10014.563
10013.026
10011.452
10010.155
10009.009
10008.094
10007.4
10006.938
10006.708
10006.708
10006.938
10007.4
10008.094
10009.009
10010.155
10011.452
10013.026
10014.563
10016.588
10018.051
10020.621
10021.28
10024.602
10023.047
10029.16
10030.922
10027.413
10026.745
10024.104
10022.609
10020.54
10018.98
10017.382
10016.072
10014.918
10014
10013.304
10012.842
10012.613
10012.613
10012.842
10013.304
10014
10014.918
10016.072
10017.382
10018.98
10020.54
10022.609
10024.104
10026.745
10027.413
10030.922
10029.16
10035.382
10037.388
10033.68
10033.011
10030.305
10028.784
10026.679
10025.101
10023.485
10022.169
10021.01
10020.093
10019.397
10018.937
10018.709
10018.709
10018.937
10019.397
10020.093
10021.01
10022.169
10023.485
10025.101
10026.679
10028.784
10030.305
10033.011
10033.68
10037.388
10035.382
10041.719
10044.005
10040.088
10039.429
10036.662
10035.123
10032.989
10031.4
10029.773
10028.455
10027.295
10026.381
10025.686
10025.229
10025.002
10025.002
10025.229
10025.686
10026.381
10027.295
10028.455
10029.773
10031.4
10032.989
10035.123
10036.662
10039.429
10040.088
10044.005
10041.719
10048.182
10050.782
10046.647
10046.007
10043.185
10041.637
10039.482
10037.889
10036.255
10034.94
10033.782
10032.872
10032.181
10031.727
10031.503
10031.503
10031.727
10032.181
10032.872
10033.782
10034.94
10036.255
10037.889
10039.482
10041.637
10043.185
10046.007
10046.647
10050.782
10048.182
10054.788
10057.737
10053.368
10052.756
10049.886
10048.336
10046.169
10044.578
10042.943
10041.634
10040.481
10039.578
10038.892
10038.443
10038.22
10038.22
10038.443
10038.892
10039.578
10040.481
10041.634
10042.943
10044.578
10046.169
10048.336
10049.886
10052.756
10053.368
10057.737
10054.788
10061.544
10064.898
10060.268
10059.694
10056.78
10055.235
10053.062
10051.479
10049.848
10048.549
10047.403
10046.509
10045.829
10045.385
10045.165
10045.165
10045.385
10045.829
10046.509
10047.403
10048.549
10049.848
10051.479
10053.062
10055.235
10056.78
10059.694
10060.268
10064.898
10061.544
10068.443
10072.285
10067.372
10066.846
10063.888
10062.351
10060.176
10058.606
10056.984
10055.697
10054.56
10053.677
10053.004
10052.566
10052.349
10052.349
10052.566
10053.004
10053.677
10054.56
10055.697
10056.984
10058.606
10060.176
10062.351
10063.888
10066.846
10067.372
10072.285
10068.443
10075.49
10079.916
10074.694
10074.229
10071.226
10069.701
10067.529
10065.974
10064.362
10063.089
10061.963
10061.091
10060.427
10059.995
10059.78
10059.78
10059.995
10060.427
10061.091
10061.963
10063.089
10064.362
10065.974
10067.529
10069.701
10071.226
10074.229
10074.694
10079.916
10075.49
10082.706
10087.802
10082.241
10081.848
10078.807
10077.296
10075.128
10073.589
10071.987
10070.729
10069.614
10068.753
10068.096
10067.67
10067.458
10067.458
10067.67
10068.096
10068.753
10069.614
10070.729
10071.987
10073.589
10075.128
10077.296
10078.807
10081.848
10082.241
10087.802
10082.706
10090.096
10095.953
10090.023
10089.709
10086.63
10085.138
10082.97
10081.443
10079.85
10078.605
10077.501
10076.65
10076
10075.58
10075.37
10075.37
10075.58
10076
10076.65
10077.501
10078.605
10079.85
10081.443
10082.97
10085.138
10086.63
10089.709
10090.023
10095.953
10090.096
10097.665
10104.378
10098.05
10097.82
10094.693
10093.22
10091.048
10089.531
10087.947
10086.715
10085.62
10084.779
10084.136
10083.721
10083.514
10083.514
10083.721
10084.136
10084.779
10085.62
10086.715
10087.947
10089.531
10091.048
10093.22
10094.693
10097.82
10098.05
10104.378
10097.665
10105.424
10113.087
10106.325
10106.192
10103.002
10101.546
10099.37
10097.862
10096.286
10095.064
10093.98
10093.148
10092.512
10092.102
10091.898
10091.898
10092.102
10092.512
10093.148
10093.98
10095.064
10096.286
10097.862
10099.37
10101.546
10103.002
10106.192
10106.325
10113.087
10105.424
10113.39
10122.088
10114.861
10114.839
10111.575
10110.135
10107.951
10106.449
10104.879
10103.666
10102.59
10101.766
10101.136
10100.731
10100.529
10100.529
10100.731
10101.136
10101.766
10102.59
10103.666
10104.879
10106.449
10107.951
10110.135
10111.575
10114.839
10114.861
10122.088
10113.39
10121.586
10131.38
10123.672
10123.781
10120.43
10119.004
10116.804
10115.303
10113.734
10112.527
10111.456
10110.639
10110.014
10109.613
10109.414
10109.414
10109.613
10110.014
10110.639
10111.456
10112.527
10113.734
10115.303
10116.804
10119.004
10120.43
10123.781
10123.672
10131.38
10121.586
10130.03
10140.962
10132.775
10133.036
10129.588
10128.168
10125.937
10124.425
10122.85
10121.645
10120.577
10119.764
10119.142
10118.745
10118.548
10118.548
10118.745
10119.142
10119.764
10120.577
10121.645
10122.85
10124.425
10125.937
10128.168
10129.588
10133.036
10132.775
10140.962
10130.03
10138.719
10150.836
10142.186
10142.617
10139.064
10137.64
10135.363
10133.836
10132.252
10131.044
10129.976
10129.165
10128.545
10128.15
10127.954
10127.954
10128.15
10128.545
10129.165
10129.976
10131.044
10132.252
10133.836
10135.363
10137.64
10139.064
10142.617
10142.186
10150.836
10138.719
10147.653
10161.004
10151.922
10152.53
10148.868
10147.431
10145.111
10143.572
10141.976
10140.762
10139.691
10138.878
10138.259
10137.865
10137.67
10137.67
10137.865
10138.259
10138.878
10139.691
10140.762
10141.976
10143.572
10145.111
10147.431
10148.868
10152.53
10151.922
10161.004
10147.653
10156.856
10171.48
10161.996
10162.784
10159.009
10157.546
10155.198
10153.646
10152.035
10150.81
10149.731
10148.915
10148.293
10147.899
10147.705
10147.705
10147.899
10148.293
10148.915
10149.731
10150.81
10152.035
10153.646
10155.198
10157.546
10159.009
10162.784
10161.996
10171.48
10156.856
10166.364
10182.273
10172.428
10173.391
10169.5
10167.999
10165.63
10164.059
10162.428
10161.188
10160.099
10159.275
10158.649
10158.253
10158.059
10158.059
10158.253
10158.649
10159.275
10160.099
10161.188
10162.428
10164.059
10165.63
10167.999
10169.5
10173.391
10172.428
10182.273
10166.364
10176.216
10193.364
10183.233
10184.376
10180.35
10178.809
10176.412
10174.814
10173.159
10171.9
10170.796
10169.961
10169.328
10168.93
10168.734
10168.734
10168.93
10169.328
10169.961
10170.796
10171.9
10173.159
10174.814
10176.412
10178.809
10180.35
10184.376
10183.233
10193.364
10176.216
10186.446
10204.733
10194.415
10195.743
10191.565
10189.981
10187.548
10185.915
10184.232
10182.949
10181.828
10180.979
10180.337
10179.933
10179.736
10179.736
10179.933
10180.337
10180.979
10181.828
10182.949
10184.232
10185.915
10187.548
10189.981
10191.565
10195.743
10194.415
10204.733
10186.446
10197.078
10216.361
10205.965
10207.46
10203.152
10201.532
10199.049
10197.372
10195.657
10194.346
10193.203
10192.336
10191.683
10191.273
10191.073
10191.073
10191.273
10191.683
10192.336
10193.203
10194.346
10195.657
10197.372
10199.049
10201.532
10203.152
10207.46
10205.965
10216.361
10197.078
10208.134
10228.243
10217.889
10219.515
10215.119
10213.475
10210.937
10209.212
10207.46
10206.114
10204.944
10204.056
10203.388
10202.969
10202.765
10202.765
10202.969
10203.388
10204.056
10204.944
10206.114
10207.46
10209.212
10210.937
10213.475
10215.119
10219.515
10217.889
10228.243
10208.134
10219.638
10240.372
10230.198
10231.922
10227.479
10225.817
10223.229
10221.455
10219.664
10218.279
10217.079
10216.165
10215.48
10215.051
10214.842
10214.842
10215.051
10215.48
10216.165
10217.079
10218.279
10219.664
10221.455
10223.229
10225.817
10227.479
10231.922
10230.198
10240.372
10219.638
10231.605
10252.743
10242.902
10244.694
10240.238
10238.562
10235.93
10234.112
10232.282
10230.857
10229.625
10228.684
10227.979
10227.538
10227.325
10227.325
10227.538
10227.979
10228.684
10229.625
10230.857
10232.282
10234.112
10235.93
10238.562
10240.238
10244.694
10242.902
10252.743
10231.605
10244.043
10265.379
10256.012
10257.838
10253.405
10251.714
10249.045
10247.184
10245.318
10243.854
10242.589
10241.619
10240.894
10240.442
10240.223
10240.223
10240.442
10240.894
10241.619
10242.589
10243.854
10245.318
10247.184
10249.045
10251.714
10253.405
10257.838
10256.012
10265.379
10244.043
10256.958
10278.351
10269.541
10271.352
10266.984
10265.278
10262.579
10260.68
10258.779
10257.276
10255.979
10254.981
10254.236
10253.77
10253.546
10253.546
10253.77
10254.236
10254.981
10255.979
10257.276
10258.779
10260.68
10262.579
10265.278
10266.984
10271.352
10269.541
10278.351
10256.958
10270.361
10291.704
10283.494
10285.241
10280.98
10279.26
10276.539
10274.605
10272.673
10271.133
10269.805
10268.778
10268.013
10267.535
10267.306
10267.306
10267.535
10268.013
10268.778
10269.805
10271.133
10272.673
10274.605
10276.539
10279.26
10280.98
10285.241
10283.494
10291.704
10270.361
10284.253
10305.427
10297.866
10299.518
10295.4
10293.666
10290.932
10288.968
10287.008
10285.434
10284.077
10283.023
10282.237
10281.748
10281.513
10281.513
10281.748
10282.237
10283.023
10284.077
10285.434
10287.008
10288.968
10290.932
10293.666
10295.4
10299.518
10297.866
10305.427
10284.253
10298.64
10319.489
10312.634
10314.195
10310.257
10308.503
10305.766
10303.777
10301.794
10300.189
10298.805
10297.725
10296.921
10296.421
10296.182
10296.182
10296.421
10296.921
10297.725
10298.805
10300.189
10301.794
10303.777
10305.766
10308.503
10310.257
10314.195
10312.634
10319.489
10298.64
10313.525
10333.879
10327.786
10329.286
10325.55
10323.778
10321.048
10319.037
10317.038
10315.407
10314
10312.897
10312.077
10311.567
10311.325
10311.325
10311.567
10312.077
10312.897
10314
10315.407
10317.038
10319.037
10321.048
10323.778
10325.55
10329.286
10327.786
10333.879
10313.525
10328.897
10348.645
10343.323
10344.793
10341.279
10339.494
10336.783
10334.758
10332.749
10331.097
10329.672
10328.549
10327.715
10327.198
10326.953
10326.953
10327.198
10327.715
10328.549
10329.672
10331.097
10332.749
10334.758
10336.783
10339.494
10341.279
10344.793
10343.323
10348.645
10328.897
10344.752
10363.832
10359.208
10360.721
10357.446
10355.658
10352.978
10350.944
10348.933
10347.268
10345.829
10344.691
10343.847
10343.325
10343.079
10343.079
10343.325
10343.847
10344.691
10345.829
10347.268
10348.933
10350.944
10352.978
10355.658
10357.446
10360.721
10359.208
10363.832
10344.752
10361.078
10379.471
10375.464
10377.088
10374.055
10372.274
10369.636
10367.603
10365.598
10363.926
10362.481
10361.333
10360.483
10359.959
10359.713
10359.713
10359.959
10360.483
10361.333
10362.481
10363.926
10365.598
10367.603
10369.636
10372.274
10374.055
10377.088
10375.464
10379.471
10361.078
10377.829
10395.578
10392.166
10393.915
10391.113
10389.346
10386.763
10384.738
10382.75
10381.079
10379.634
10378.482
10377.63
10377.108
10376.864
10376.864
10377.108
10377.63
10378.482
10379.634
10381.079
10382.75
10384.738
10386.763
10389.346
10391.113
10393.915
10392.167
10395.578
10377.829
10394.993
10412.149
10409.322
10411.202
10408.622
10406.883
10404.363
10402.356
10400.393
10398.732
10397.295
10396.145
10395.297
10394.781
10394.541
10394.541
10394.781
10395.297
10396.145
10397.295
10398.732
10400.393
10402.357
10404.363
10406.883
10408.622
10411.202
10409.322
10412.149
10394.993
10412.625
10429.197
10426.916