# Location 0    : (-1.00010000e+01 1.00000000e-03 -5.00100000e+00)
# Location 1    : (-2.00010000e+01 1.00000000e-03 -5.00100000e+00)
# Location 2    : (-3.00010000e+01 1.00000000e-03 -5.00100000e+00)
# Location 3    : (-4.00010000e+01 1.00000000e-03 -5.00100000e+00)
# Location 4    : (-5.00010000e+01 1.00000000e-03 -5.00100000e+00)
# hB            : Interface height above the boundary
# hL            : Interface height above the location
# Location      0                                 1                                 2                                 3                                 4                                 
# Time          hB               hL               hB               hL               hB               hL               hB               hL               hB               hL               
3.6             0.00000000e+00   1.79769313e+307  0.00000000e+00   1.79769313e+307  0.00000000e+00   1.79769313e+307  0.00000000e+00   1.79769313e+307  0.00000000e+00   1.79769313e+307  
3.604           0.00000000e+00   1.79769313e+307  0.00000000e+00   1.79769313e+307  0.00000000e+00   1.79769313e+307  0.00000000e+00   1.79769313e+307  0.00000000e+00   1.79769313e+307  
3.608           0.00000000e+00   1.79769313e+307  0.00000000e+00   1.79769313e+307  0.00000000e+00   1.79769313e+307  0.00000000e+00   1.79769313e+307  0.00000000e+00   1.79769313e+307  
3.612           0.00000000e+00   1.79769313e+307  0.00000000e+00   1.79769313e+307  0.00000000e+00   1.79769313e+307  0.00000000e+00   1.79769313e+307  0.00000000e+00   1.79769313e+307  
3.616           0.00000000e+00   1.79769313e+307  0.00000000e+00   1.79769313e+307  0.00000000e+00   1.79769313e+307  0.00000000e+00   1.79769313e+307  0.00000000e+00   1.79769313e+307  
3.62            0.00000000e+00   1.79769313e+307  0.00000000e+00   1.79769313e+307  0.00000000e+00   1.79769313e+307  0.00000000e+00   1.79769313e+307  0.00000000e+00   1.79769313e+307  
3.624           0.00000000e+00   1.79769313e+307  0.00000000e+00   1.79769313e+307  0.00000000e+00   1.79769313e+307  0.00000000e+00   1.79769313e+307  0.00000000e+00   1.79769313e+307  
3.628           0.00000000e+00   1.79769313e+307  0.00000000e+00   1.79769313e+307  0.00000000e+00   1.79769313e+307  0.00000000e+00   1.79769313e+307  0.00000000e+00   1.79769313e+307  
3.632           0.00000000e+00   1.79769313e+307  0.00000000e+00   1.79769313e+307  0.00000000e+00   1.79769313e+307  0.00000000e+00   1.79769313e+307  0.00000000e+00   1.79769313e+307  
3.636           0.00000000e+00   1.79769313e+307  0.00000000e+00   1.79769313e+307  0.00000000e+00   1.79769313e+307  0.00000000e+00   1.79769313e+307  0.00000000e+00   1.79769313e+307  
3.64            0.00000000e+00   1.79769313e+307  0.00000000e+00   1.79769313e+307  0.00000000e+00   1.79769313e+307  0.00000000e+00   1.79769313e+307  0.00000000e+00   1.79769313e+307  
3.644           0.00000000e+00   1.79769313e+307  0.00000000e+00   1.79769313e+307  0.00000000e+00   1.79769313e+307  0.00000000e+00   1.79769313e+307  0.00000000e+00   1.79769313e+307  
3.648           0.00000000e+00   1.79769313e+307  0.00000000e+00   1.79769313e+307  0.00000000e+00   1.79769313e+307  0.00000000e+00   1.79769313e+307  0.00000000e+00   1.79769313e+307  
3.652           0.00000000e+00   1.79769313e+307  0.00000000e+00   1.79769313e+307  0.00000000e+00   1.79769313e+307  0.00000000e+00   1.79769313e+307  0.00000000e+00   1.79769313e+307  
3.656           0.00000000e+00   1.79769313e+307  0.00000000e+00   1.79769313e+307  0.00000000e+00   1.79769313e+307  0.00000000e+00   1.79769313e+307  0.00000000e+00   1.79769313e+307  
3.66            0.00000000e+00   1.79769313e+307  0.00000000e+00   1.79769313e+307  0.00000000e+00   1.79769313e+307  0.00000000e+00   1.79769313e+307  0.00000000e+00   1.79769313e+307  
3.664           0.00000000e+00   1.79769313e+307  0.00000000e+00   1.79769313e+307  0.00000000e+00   1.79769313e+307  0.00000000e+00   1.79769313e+307  0.00000000e+00   1.79769313e+307  
3.668           0.00000000e+00   1.79769313e+307  0.00000000e+00   1.79769313e+307  0.00000000e+00   1.79769313e+307  0.00000000e+00   1.79769313e+307  0.00000000e+00   1.79769313e+307  
3.672           0.00000000e+00   1.79769313e+307  0.00000000e+00   1.79769313e+307  0.00000000e+00   1.79769313e+307  0.00000000e+00   1.79769313e+307  0.00000000e+00   1.79769313e+307  
3.676           0.00000000e+00   1.79769313e+307  0.00000000e+00   1.79769313e+307  0.00000000e+00   1.79769313e+307  0.00000000e+00   1.79769313e+307  0.00000000e+00   1.79769313e+307  
3.68            0.00000000e+00   1.79769313e+307  0.00000000e+00   1.79769313e+307  0.00000000e+00   1.79769313e+307  0.00000000e+00   1.79769313e+307  0.00000000e+00   1.79769313e+307  
3.684           0.00000000e+00   1.79769313e+307  0.00000000e+00   1.79769313e+307  0.00000000e+00   1.79769313e+307  0.00000000e+00   1.79769313e+307  0.00000000e+00   1.79769313e+307  
3.688           0.00000000e+00   1.79769313e+307  0.00000000e+00   1.79769313e+307  0.00000000e+00   1.79769313e+307  0.00000000e+00   1.79769313e+307  0.00000000e+00   1.79769313e+307  
3.692           0.00000000e+00   1.79769313e+307  0.00000000e+00   1.79769313e+307  0.00000000e+00   1.79769313e+307  0.00000000e+00   1.79769313e+307  0.00000000e+00   1.79769313e+307  
3.696           0.00000000e+00   1.79769313e+307  0.00000000e+00   1.79769313e+307  0.00000000e+00   1.79769313e+307  0.00000000e+00   1.79769313e+307  0.00000000e+00   1.79769313e+307  
3.7             0.00000000e+00   1.79769313e+307  0.00000000e+00   1.79769313e+307  0.00000000e+00   1.79769313e+307  0.00000000e+00   1.79769313e+307  0.00000000e+00   1.79769313e+307  
3.704           0.00000000e+00   1.79769313e+307  0.00000000e+00   1.79769313e+307  0.00000000e+00   1.79769313e+307  0.00000000e+00   1.79769313e+307  0.00000000e+00   1.79769313e+307  
3.708           0.00000000e+00   1.79769313e+307  0.00000000e+00   1.79769313e+307  0.00000000e+00   1.79769313e+307  0.00000000e+00   1.79769313e+307  0.00000000e+00   1.79769313e+307  
3.712           0.00000000e+00   1.79769313e+307  0.00000000e+00   1.79769313e+307  0.00000000e+00   1.79769313e+307  0.00000000e+00   1.79769313e+307  0.00000000e+00   1.79769313e+307  
3.716           0.00000000e+00   1.79769313e+307  0.00000000e+00   1.79769313e+307  0.00000000e+00   1.79769313e+307  0.00000000e+00   1.79769313e+307  0.00000000e+00   1.79769313e+307  
3.72            0.00000000e+00   1.79769313e+307  0.00000000e+00   1.79769313e+307  0.00000000e+00   1.79769313e+307  0.00000000e+00   1.79769313e+307  0.00000000e+00   1.79769313e+307  
3.724           0.00000000e+00   1.79769313e+307  0.00000000e+00   1.79769313e+307  0.00000000e+00   1.79769313e+307  0.00000000e+00   1.79769313e+307  0.00000000e+00   1.79769313e+307  
3.728           0.00000000e+00   1.79769313e+307  0.00000000e+00   1.79769313e+307  0.00000000e+00   1.79769313e+307  0.00000000e+00   1.79769313e+307  0.00000000e+00   1.79769313e+307  
3.732           0.00000000e+00   1.79769313e+307  0.00000000e+00   1.79769313e+307  0.00000000e+00   1.79769313e+307  0.00000000e+00   1.79769313e+307  0.00000000e+00   1.79769313e+307  
3.736           0.00000000e+00   1.79769313e+307  0.00000000e+00   1.79769313e+307  0.00000000e+00   1.79769313e+307  0.00000000e+00   1.79769313e+307  0.00000000e+00   1.79769313e+307  
3.74            0.00000000e+00   1.79769313e+307  0.00000000e+00   1.79769313e+307  0.00000000e+00   1.79769313e+307  0.00000000e+00   1.79769313e+307  0.00000000e+00   1.79769313e+307  
3.744           0.00000000e+00   1.79769313e+307  0.00000000e+00   1.79769313e+307  0.00000000e+00   1.79769313e+307  0.00000000e+00   1.79769313e+307  0.00000000e+00   1.79769313e+307  
3.748           0.00000000e+00   1.79769313e+307  0.00000000e+00   1.79769313e+307  0.00000000e+00   1.79769313e+307  0.00000000e+00   1.79769313e+307  0.00000000e+00   1.79769313e+307  
3.752           0.00000000e+00   1.79769313e+307  0.00000000e+00   1.79769313e+307  0.00000000e+00   1.79769313e+307  0.00000000e+00   1.79769313e+307  0.00000000e+00   1.79769313e+307  
3.756           0.00000000e+00   1.79769313e+307  0.00000000e+00   1.79769313e+307  0.00000000e+00   1.79769313e+307  0.00000000e+00   1.79769313e+307  0.00000000e+00   1.79769313e+307  
3.76            0.00000000e+00   1.79769313e+307  0.00000000e+00   1.79769313e+307  0.00000000e+00   1.79769313e+307  0.00000000e+00   1.79769313e+307  0.00000000e+00   1.79769313e+307  
3.764           0.00000000e+00   1.79769313e+307  0.00000000e+00   1.79769313e+307  0.00000000e+00   1.79769313e+307  0.00000000e+00   1.79769313e+307  0.00000000e+00   1.79769313e+307  
3.768           0.00000000e+00   1.79769313e+307  0.00000000e+00   1.79769313e+307  0.00000000e+00   1.79769313e+307  0.00000000e+00   1.79769313e+307  0.00000000e+00   1.79769313e+307  
3.772           0.00000000e+00   1.79769313e+307  0.00000000e+00   1.79769313e+307  0.00000000e+00   1.79769313e+307  0.00000000e+00   1.79769313e+307  0.00000000e+00   1.79769313e+307  
3.776           0.00000000e+00   1.79769313e+307  0.00000000e+00   1.79769313e+307  0.00000000e+00   1.79769313e+307  0.00000000e+00   1.79769313e+307  0.00000000e+00   1.79769313e+307  
3.78            0.00000000e+00   1.79769313e+307  0.00000000e+00   1.79769313e+307  0.00000000e+00   1.79769313e+307  0.00000000e+00   1.79769313e+307  0.00000000e+00   1.79769313e+307  
3.784           0.00000000e+00   1.79769313e+307  0.00000000e+00   1.79769313e+307  0.00000000e+00   1.79769313e+307  0.00000000e+00   1.79769313e+307  0.00000000e+00   1.79769313e+307  
3.788           0.00000000e+00   1.79769313e+307  0.00000000e+00   1.79769313e+307  0.00000000e+00   1.79769313e+307  0.00000000e+00   1.79769313e+307  0.00000000e+00   1.79769313e+307  
3.792           0.00000000e+00   1.79769313e+307  0.00000000e+00   1.79769313e+307  0.00000000e+00   1.79769313e+307  0.00000000e+00   1.79769313e+307  0.00000000e+00   1.79769313e+307  
3.796           0.00000000e+00   1.79769313e+307  0.00000000e+00   1.79769313e+307  0.00000000e+00   1.79769313e+307  0.00000000e+00   1.79769313e+307  0.00000000e+00   1.79769313e+307  
3.8             0.00000000e+00   1.79769313e+307  0.00000000e+00   1.79769313e+307  0.00000000e+00   1.79769313e+307  0.00000000e+00   1.79769313e+307  0.00000000e+00   1.79769313e+307  
3.804           0.00000000e+00   1.79769313e+307  0.00000000e+00   1.79769313e+307  0.00000000e+00   1.79769313e+307  0.00000000e+00   1.79769313e+307  0.00000000e+00   1.79769313e+307  
3.808           0.00000000e+00   1.79769313e+307  0.00000000e+00   1.79769313e+307  0.00000000e+00   1.79769313e+307  0.00000000e+00   1.79769313e+307  0.00000000e+00   1.79769313e+307  
3.812           0.00000000e+00   1.79769313e+307  0.00000000e+00   1.79769313e+307  0.00000000e+00   1.79769313e+307  0.00000000e+00   1.79769313e+307  0.00000000e+00   1.79769313e+307  
3.816           0.00000000e+00   1.79769313e+307  0.00000000e+00   1.79769313e+307  0.00000000e+00   1.79769313e+307  0.00000000e+00   1.79769313e+307  0.00000000e+00   1.79769313e+307  
3.82            0.00000000e+00   1.79769313e+307  0.00000000e+00   1.79769313e+307  0.00000000e+00   1.79769313e+307  0.00000000e+00   1.79769313e+307  0.00000000e+00   1.79769313e+307  
3.824           0.00000000e+00   1.79769313e+307  0.00000000e+00   1.79769313e+307  0.00000000e+00   1.79769313e+307  0.00000000e+00   1.79769313e+307  0.00000000e+00   1.79769313e+307  
3.828           0.00000000e+00   1.79769313e+307  0.00000000e+00   1.79769313e+307  0.00000000e+00   1.79769313e+307  0.00000000e+00   1.79769313e+307  0.00000000e+00   1.79769313e+307  
3.832           0.00000000e+00   1.79769313e+307  0.00000000e+00   1.79769313e+307  0.00000000e+00   1.79769313e+307  0.00000000e+00   1.79769313e+307  0.00000000e+00   1.79769313e+307  
3.836           0.00000000e+00   1.79769313e+307  0.00000000e+00   1.79769313e+307  0.00000000e+00   1.79769313e+307  0.00000000e+00   1.79769313e+307  0.00000000e+00   1.79769313e+307  
3.84            0.00000000e+00   1.79769313e+307  0.00000000e+00   1.79769313e+307  0.00000000e+00   1.79769313e+307  0.00000000e+00   1.79769313e+307  0.00000000e+00   1.79769313e+307  
3.844           0.00000000e+00   1.79769313e+307  0.00000000e+00   1.79769313e+307  0.00000000e+00   1.79769313e+307  0.00000000e+00   1.79769313e+307  0.00000000e+00   1.79769313e+307  
3.848           0.00000000e+00   1.79769313e+307  0.00000000e+00   1.79769313e+307  0.00000000e+00   1.79769313e+307  0.00000000e+00   1.79769313e+307  0.00000000e+00   1.79769313e+307  
3.852           0.00000000e+00   1.79769313e+307  0.00000000e+00   1.79769313e+307  0.00000000e+00   1.79769313e+307  0.00000000e+00   1.79769313e+307  0.00000000e+00   1.79769313e+307  
3.856           0.00000000e+00   1.79769313e+307  0.00000000e+00   1.79769313e+307  0.00000000e+00   1.79769313e+307  0.00000000e+00   1.79769313e+307  0.00000000e+00   1.79769313e+307  
3.86            0.00000000e+00   1.79769313e+307  0.00000000e+00   1.79769313e+307  0.00000000e+00   1.79769313e+307  0.00000000e+00   1.79769313e+307  0.00000000e+00   1.79769313e+307  
3.864           0.00000000e+00   1.79769313e+307  0.00000000e+00   1.79769313e+307  0.00000000e+00   1.79769313e+307  0.00000000e+00   1.79769313e+307  0.00000000e+00   1.79769313e+307  
3.868           0.00000000e+00   1.79769313e+307  0.00000000e+00   1.79769313e+307  0.00000000e+00   1.79769313e+307  0.00000000e+00   1.79769313e+307  0.00000000e+00   1.79769313e+307  
3.872           0.00000000e+00   1.79769313e+307  0.00000000e+00   1.79769313e+307  0.00000000e+00   1.79769313e+307  0.00000000e+00   1.79769313e+307  0.00000000e+00   1.79769313e+307  
3.876           0.00000000e+00   1.79769313e+307  0.00000000e+00   1.79769313e+307  0.00000000e+00   1.79769313e+307  0.00000000e+00   1.79769313e+307  0.00000000e+00   1.79769313e+307  
3.88            0.00000000e+00   1.79769313e+307  0.00000000e+00   1.79769313e+307  0.00000000e+00   1.79769313e+307  0.00000000e+00   1.79769313e+307  0.00000000e+00   1.79769313e+307  
3.884           0.00000000e+00   1.79769313e+307  0.00000000e+00   1.79769313e+307  0.00000000e+00   1.79769313e+307  0.00000000e+00   1.79769313e+307  0.00000000e+00   1.79769313e+307  
3.888           0.00000000e+00   1.79769313e+307  0.00000000e+00   1.79769313e+307  0.00000000e+00   1.79769313e+307  0.00000000e+00   1.79769313e+307  0.00000000e+00   1.79769313e+307  
3.892           0.00000000e+00   1.79769313e+307  0.00000000e+00   1.79769313e+307  0.00000000e+00   1.79769313e+307  0.00000000e+00   1.79769313e+307  0.00000000e+00   1.79769313e+307  
3.896           0.00000000e+00   1.79769313e+307  0.00000000e+00   1.79769313e+307  0.00000000e+00   1.79769313e+307  0.00000000e+00   1.79769313e+307  0.00000000e+00   1.79769313e+307  
3.9             0.00000000e+00   1.79769313e+307  0.00000000e+00   1.79769313e+307  0.00000000e+00   1.79769313e+307  0.00000000e+00   1.79769313e+307  0.00000000e+00   1.79769313e+307  
3.904           0.00000000e+00   1.79769313e+307  0.00000000e+00   1.79769313e+307  0.00000000e+00   1.79769313e+307  0.00000000e+00   1.79769313e+307  0.00000000e+00   1.79769313e+307  
3.908           0.00000000e+00   1.79769313e+307  0.00000000e+00   1.79769313e+307  0.00000000e+00   1.79769313e+307  0.00000000e+00   1.79769313e+307  0.00000000e+00   1.79769313e+307  
3.912           0.00000000e+00   1.79769313e+307  0.00000000e+00   1.79769313e+307  0.00000000e+00   1.79769313e+307  0.00000000e+00   1.79769313e+307  0.00000000e+00   1.79769313e+307  
3.916           0.00000000e+00   1.79769313e+307  0.00000000e+00   1.79769313e+307  0.00000000e+00   1.79769313e+307  0.00000000e+00   1.79769313e+307  0.00000000e+00   1.79769313e+307  
3.92            0.00000000e+00   1.79769313e+307  0.00000000e+00   1.79769313e+307  0.00000000e+00   1.79769313e+307  0.00000000e+00   1.79769313e+307  0.00000000e+00   1.79769313e+307  
3.924           0.00000000e+00   1.79769313e+307  0.00000000e+00   1.79769313e+307  0.00000000e+00   1.79769313e+307  0.00000000e+00   1.79769313e+307  0.00000000e+00   1.79769313e+307  
3.928           0.00000000e+00   1.79769313e+307  0.00000000e+00   1.79769313e+307  0.00000000e+00   1.79769313e+307  0.00000000e+00   1.79769313e+307  0.00000000e+00   1.79769313e+307  
3.932           0.00000000e+00   1.79769313e+307  0.00000000e+00   1.79769313e+307  0.00000000e+00   1.79769313e+307  0.00000000e+00   1.79769313e+307  0.00000000e+00   1.79769313e+307  
3.936           0.00000000e+00   1.79769313e+307  0.00000000e+00   1.79769313e+307  0.00000000e+00   1.79769313e+307  0.00000000e+00   1.79769313e+307  0.00000000e+00   1.79769313e+307  
3.94            0.00000000e+00   1.79769313e+307  0.00000000e+00   1.79769313e+307  0.00000000e+00   1.79769313e+307  0.00000000e+00   1.79769313e+307  0.00000000e+00   1.79769313e+307  
3.944           0.00000000e+00   1.79769313e+307  0.00000000e+00   1.79769313e+307  0.00000000e+00   1.79769313e+307  0.00000000e+00   1.79769313e+307  0.00000000e+00   1.79769313e+307  
3.948           0.00000000e+00   1.79769313e+307  0.00000000e+00   1.79769313e+307  0.00000000e+00   1.79769313e+307  0.00000000e+00   1.79769313e+307  0.00000000e+00   1.79769313e+307  
3.952           0.00000000e+00   1.79769313e+307  0.00000000e+00   1.79769313e+307  0.00000000e+00   1.79769313e+307  0.00000000e+00   1.79769313e+307  0.00000000e+00   1.79769313e+307  
3.956           0.00000000e+00   1.79769313e+307  0.00000000e+00   1.79769313e+307  0.00000000e+00   1.79769313e+307  0.00000000e+00   1.79769313e+307  0.00000000e+00   1.79769313e+307  
3.96            0.00000000e+00   1.79769313e+307  0.00000000e+00   1.79769313e+307  0.00000000e+00   1.79769313e+307  0.00000000e+00   1.79769313e+307  0.00000000e+00   1.79769313e+307  
3.964           0.00000000e+00   1.79769313e+307  0.00000000e+00   1.79769313e+307  0.00000000e+00   1.79769313e+307  0.00000000e+00   1.79769313e+307  0.00000000e+00   1.79769313e+307  
3.968           0.00000000e+00   1.79769313e+307  0.00000000e+00   1.79769313e+307  0.00000000e+00   1.79769313e+307  0.00000000e+00   1.79769313e+307  0.00000000e+00   1.79769313e+307  
3.972           0.00000000e+00   1.79769313e+307  0.00000000e+00   1.79769313e+307  0.00000000e+00   1.79769313e+307  0.00000000e+00   1.79769313e+307  0.00000000e+00   1.79769313e+307  
3.976           0.00000000e+00   1.79769313e+307  0.00000000e+00   1.79769313e+307  0.00000000e+00   1.79769313e+307  0.00000000e+00   1.79769313e+307  0.00000000e+00   1.79769313e+307  
3.98            0.00000000e+00   1.79769313e+307  0.00000000e+00   1.79769313e+307  0.00000000e+00   1.79769313e+307  0.00000000e+00   1.79769313e+307  0.00000000e+00   1.79769313e+307  
3.984           0.00000000e+00   1.79769313e+307  0.00000000e+00   1.79769313e+307  0.00000000e+00   1.79769313e+307  0.00000000e+00   1.79769313e+307  0.00000000e+00   1.79769313e+307  
3.988           0.00000000e+00   1.79769313e+307  0.00000000e+00   1.79769313e+307  0.00000000e+00   1.79769313e+307  0.00000000e+00   1.79769313e+307  0.00000000e+00   1.79769313e+307  
3.992           0.00000000e+00   1.79769313e+307  0.00000000e+00   1.79769313e+307  0.00000000e+00   1.79769313e+307  0.00000000e+00   1.79769313e+307  0.00000000e+00   1.79769313e+307  
3.996           0.00000000e+00   1.79769313e+307  0.00000000e+00   1.79769313e+307  0.00000000e+00   1.79769313e+307  0.00000000e+00   1.79769313e+307  0.00000000e+00   1.79769313e+307  
4               0.00000000e+00   1.79769313e+307  0.00000000e+00   1.79769313e+307  0.00000000e+00   1.79769313e+307  0.00000000e+00   1.79769313e+307  0.00000000e+00   1.79769313e+307  
4.004           0.00000000e+00   1.79769313e+307  0.00000000e+00   1.79769313e+307  0.00000000e+00   1.79769313e+307  0.00000000e+00   1.79769313e+307  0.00000000e+00   1.79769313e+307  
4.008           0.00000000e+00   1.79769313e+307  0.00000000e+00   1.79769313e+307  0.00000000e+00   1.79769313e+307  0.00000000e+00   1.79769313e+307  0.00000000e+00   1.79769313e+307  
4.012           0.00000000e+00   1.79769313e+307  0.00000000e+00   1.79769313e+307  0.00000000e+00   1.79769313e+307  0.00000000e+00   1.79769313e+307  0.00000000e+00   1.79769313e+307  
4.016           0.00000000e+00   1.79769313e+307  0.00000000e+00   1.79769313e+307  0.00000000e+00   1.79769313e+307  0.00000000e+00   1.79769313e+307  0.00000000e+00   1.79769313e+307  
4.02            0.00000000e+00   1.79769313e+307  0.00000000e+00   1.79769313e+307  0.00000000e+00   1.79769313e+307  0.00000000e+00   1.79769313e+307  0.00000000e+00   1.79769313e+307  
4.024           0.00000000e+00   1.79769313e+307  0.00000000e+00   1.79769313e+307  0.00000000e+00   1.79769313e+307  0.00000000e+00   1.79769313e+307  0.00000000e+00   1.79769313e+307  
4.028           0.00000000e+00   1.79769313e+307  0.00000000e+00   1.79769313e+307  0.00000000e+00   1.79769313e+307  0.00000000e+00   1.79769313e+307  0.00000000e+00   1.79769313e+307  
4.032           0.00000000e+00   1.79769313e+307  0.00000000e+00   1.79769313e+307  0.00000000e+00   1.79769313e+307  0.00000000e+00   1.79769313e+307  0.00000000e+00   1.79769313e+307  
4.036           0.00000000e+00   1.79769313e+307  0.00000000e+00   1.79769313e+307  0.00000000e+00   1.79769313e+307  0.00000000e+00   1.79769313e+307  0.00000000e+00   1.79769313e+307  
4.04            0.00000000e+00   1.79769313e+307  0.00000000e+00   1.79769313e+307  0.00000000e+00   1.79769313e+307  0.00000000e+00   1.79769313e+307  0.00000000e+00   1.79769313e+307  
4.044           0.00000000e+00   1.79769313e+307  0.00000000e+00   1.79769313e+307  0.00000000e+00   1.79769313e+307  0.00000000e+00   1.79769313e+307  0.00000000e+00   1.79769313e+307  
4.048           0.00000000e+00   1.79769313e+307  0.00000000e+00   1.79769313e+307  0.00000000e+00   1.79769313e+307  0.00000000e+00   1.79769313e+307  0.00000000e+00   1.79769313e+307  
4.052           0.00000000e+00   1.79769313e+307  0.00000000e+00   1.79769313e+307  0.00000000e+00   1.79769313e+307  0.00000000e+00   1.79769313e+307  0.00000000e+00   1.79769313e+307  
4.056           0.00000000e+00   1.79769313e+307  0.00000000e+00   1.79769313e+307  0.00000000e+00   1.79769313e+307  0.00000000e+00   1.79769313e+307  0.00000000e+00   1.79769313e+307  
4.06            0.00000000e+00   1.79769313e+307  0.00000000e+00   1.79769313e+307  0.00000000e+00   1.79769313e+307  0.00000000e+00   1.79769313e+307  0.00000000e+00   1.79769313e+307  
4.064           0.00000000e+00   1.79769313e+307  0.00000000e+00   1.79769313e+307  0.00000000e+00   1.79769313e+307  0.00000000e+00   1.79769313e+307  0.00000000e+00   1.79769313e+307  
4.068           0.00000000e+00   1.79769313e+307  0.00000000e+00   1.79769313e+307  0.00000000e+00   1.79769313e+307  0.00000000e+00   1.79769313e+307  0.00000000e+00   1.79769313e+307  
4.072           0.00000000e+00   1.79769313e+307  0.00000000e+00   1.79769313e+307  0.00000000e+00   1.79769313e+307  0.00000000e+00   1.79769313e+307  0.00000000e+00   1.79769313e+307  
4.076           0.00000000e+00   1.79769313e+307  0.00000000e+00   1.79769313e+307  0.00000000e+00   1.79769313e+307  0.00000000e+00   1.79769313e+307  0.00000000e+00   1.79769313e+307  
4.08            0.00000000e+00   1.79769313e+307  0.00000000e+00   1.79769313e+307  0.00000000e+00   1.79769313e+307  0.00000000e+00   1.79769313e+307  0.00000000e+00   1.79769313e+307  
4.084           0.00000000e+00   1.79769313e+307  0.00000000e+00   1.79769313e+307  0.00000000e+00   1.79769313e+307  0.00000000e+00   1.79769313e+307  0.00000000e+00   1.79769313e+307  
4.088           0.00000000e+00   1.79769313e+307  0.00000000e+00   1.79769313e+307  0.00000000e+00   1.79769313e+307  0.00000000e+00   1.79769313e+307  0.00000000e+00   1.79769313e+307  
4.092           0.00000000e+00   1.79769313e+307  0.00000000e+00   1.79769313e+307  0.00000000e+00   1.79769313e+307  0.00000000e+00   1.79769313e+307  0.00000000e+00   1.79769313e+307  
4.096           0.00000000e+00   1.79769313e+307  0.00000000e+00   1.79769313e+307  0.00000000e+00   1.79769313e+307  0.00000000e+00   1.79769313e+307  0.00000000e+00   1.79769313e+307  
4.1             0.00000000e+00   1.79769313e+307  0.00000000e+00   1.79769313e+307  0.00000000e+00   1.79769313e+307  0.00000000e+00   1.79769313e+307  0.00000000e+00   1.79769313e+307  
4.104           0.00000000e+00   1.79769313e+307  0.00000000e+00   1.79769313e+307  0.00000000e+00   1.79769313e+307  0.00000000e+00   1.79769313e+307  0.00000000e+00   1.79769313e+307  
4.108           0.00000000e+00   1.79769313e+307  0.00000000e+00   1.79769313e+307  0.00000000e+00   1.79769313e+307  0.00000000e+00   1.79769313e+307  0.00000000e+00   1.79769313e+307  
4.112           0.00000000e+00   1.79769313e+307  0.00000000e+00   1.79769313e+307  0.00000000e+00   1.79769313e+307  0.00000000e+00   1.79769313e+307  0.00000000e+00   1.79769313e+307  
4.116           0.00000000e+00   1.79769313e+307  0.00000000e+00   1.79769313e+307  0.00000000e+00   1.79769313e+307  0.00000000e+00   1.79769313e+307  0.00000000e+00   1.79769313e+307  
4.12            0.00000000e+00   1.79769313e+307  0.00000000e+00   1.79769313e+307  0.00000000e+00   1.79769313e+307  0.00000000e+00   1.79769313e+307  0.00000000e+00   1.79769313e+307  
4.124           0.00000000e+00   1.79769313e+307  0.00000000e+00   1.79769313e+307  0.00000000e+00   1.79769313e+307  0.00000000e+00   1.79769313e+307  0.00000000e+00   1.79769313e+307  
4.128           0.00000000e+00   1.79769313e+307  0.00000000e+00   1.79769313e+307  0.00000000e+00   1.79769313e+307  0.00000000e+00   1.79769313e+307  0.00000000e+00   1.79769313e+307  
4.132           0.00000000e+00   1.79769313e+307  0.00000000e+00   1.79769313e+307  0.00000000e+00   1.79769313e+307  0.00000000e+00   1.79769313e+307  0.00000000e+00   1.79769313e+307  
4.136           0.00000000e+00   1.79769313e+307  0.00000000e+00   1.79769313e+307  0.00000000e+00   1.79769313e+307  0.00000000e+00   1.79769313e+307  0.00000000e+00   1.79769313e+307  
4.14            0.00000000e+00   1.79769313e+307  0.00000000e+00   1.79769313e+307  0.00000000e+00   1.79769313e+307  0.00000000e+00   1.79769313e+307  0.00000000e+00   1.79769313e+307  
4.144           0.00000000e+00   1.79769313e+307  0.00000000e+00   1.79769313e+307  0.00000000e+00   1.79769313e+307  0.00000000e+00   1.79769313e+307  0.00000000e+00   1.79769313e+307  
4.148           0.00000000e+00   1.79769313e+307  0.00000000e+00   1.79769313e+307  0.00000000e+00   1.79769313e+307  0.00000000e+00   1.79769313e+307  0.00000000e+00   1.79769313e+307  
4.152           0.00000000e+00   1.79769313e+307  0.00000000e+00   1.79769313e+307  0.00000000e+00   1.79769313e+307  0.00000000e+00   1.79769313e+307  0.00000000e+00   1.79769313e+307  
4.156           0.00000000e+00   1.79769313e+307  0.00000000e+00   1.79769313e+307  0.00000000e+00   1.79769313e+307  0.00000000e+00   1.79769313e+307  0.00000000e+00   1.79769313e+307  
4.16            0.00000000e+00   1.79769313e+307  0.00000000e+00   1.79769313e+307  0.00000000e+00   1.79769313e+307  0.00000000e+00   1.79769313e+307  0.00000000e+00   1.79769313e+307  
4.164           0.00000000e+00   1.79769313e+307  0.00000000e+00   1.79769313e+307  0.00000000e+00   1.79769313e+307  0.00000000e+00   1.79769313e+307  0.00000000e+00   1.79769313e+307  
4.168           0.00000000e+00   1.79769313e+307  0.00000000e+00   1.79769313e+307  0.00000000e+00   1.79769313e+307  0.00000000e+00   1.79769313e+307  0.00000000e+00   1.79769313e+307  
4.172           0.00000000e+00   1.79769313e+307  0.00000000e+00   1.79769313e+307  0.00000000e+00   1.79769313e+307  0.00000000e+00   1.79769313e+307  0.00000000e+00   1.79769313e+307  
4.176           0.00000000e+00   1.79769313e+307  0.00000000e+00   1.79769313e+307  0.00000000e+00   1.79769313e+307  0.00000000e+00   1.79769313e+307  0.00000000e+00   1.79769313e+307  
4.18            0.00000000e+00   1.79769313e+307  0.00000000e+00   1.79769313e+307  0.00000000e+00   1.79769313e+307  0.00000000e+00   1.79769313e+307  0.00000000e+00   1.79769313e+307  
4.184           0.00000000e+00   1.79769313e+307  0.00000000e+00   1.79769313e+307  0.00000000e+00   1.79769313e+307  0.00000000e+00   1.79769313e+307  0.00000000e+00   1.79769313e+307  
4.188           0.00000000e+00   1.79769313e+307  0.00000000e+00   1.79769313e+307  0.00000000e+00   1.79769313e+307  0.00000000e+00   1.79769313e+307  0.00000000e+00   1.79769313e+307  
4.192           0.00000000e+00   1.79769313e+307  0.00000000e+00   1.79769313e+307  0.00000000e+00   1.79769313e+307  0.00000000e+00   1.79769313e+307  0.00000000e+00   1.79769313e+307  
4.196           0.00000000e+00   1.79769313e+307  0.00000000e+00   1.79769313e+307  0.00000000e+00   1.79769313e+307  0.00000000e+00   1.79769313e+307  0.00000000e+00   1.79769313e+307  
4.2             0.00000000e+00   1.79769313e+307  0.00000000e+00   1.79769313e+307  0.00000000e+00   1.79769313e+307  0.00000000e+00   1.79769313e+307  0.00000000e+00   1.79769313e+307  
4.204           0.00000000e+00   1.79769313e+307  0.00000000e+00   1.79769313e+307  0.00000000e+00   1.79769313e+307  0.00000000e+00   1.79769313e+307  0.00000000e+00   1.79769313e+307  
4.208           0.00000000e+00   1.79769313e+307  0.00000000e+00   1.79769313e+307  0.00000000e+00   1.79769313e+307  0.00000000e+00   1.79769313e+307  0.00000000e+00   1.79769313e+307  
4.212           0.00000000e+00   1.79769313e+307  0.00000000e+00   1.79769313e+307  0.00000000e+00   1.79769313e+307  0.00000000e+00   1.79769313e+307  0.00000000e+00   1.79769313e+307  
4.216           0.00000000e+00   1.79769313e+307  0.00000000e+00   1.79769313e+307  0.00000000e+00   1.79769313e+307  0.00000000e+00   1.79769313e+307  0.00000000e+00   1.79769313e+307  
4.22            0.00000000e+00   1.79769313e+307  0.00000000e+00   1.79769313e+307  0.00000000e+00   1.79769313e+307  0.00000000e+00   1.79769313e+307  0.00000000e+00   1.79769313e+307  